# vtk DataFile Version 3.0
Output from R3t
ASCII
DATASET UNSTRUCTURED_GRID
POINTS       6984 double
      0.32220000E+02      0.32510000E+02     -0.60022762E+01
      0.32220000E+02     -0.54200000E+01     -0.62416000E+01
     -0.53700000E+01     -0.54200000E+01     -0.45992692E+01
     -0.53700000E+01      0.32510000E+02     -0.44210816E+01
      0.32220000E+02      0.32510000E+02     -0.39552276E+02
      0.32220000E+02     -0.54200000E+01     -0.39791600E+02
     -0.53700000E+01     -0.54200000E+01     -0.38149269E+02
     -0.53700000E+01      0.32510000E+02     -0.37971082E+02
      0.21571000E+03      0.21600000E+03     -0.60852000E+01
      0.21571000E+03     -0.18891000E+03     -0.62416000E+01
     -0.18886000E+03     -0.18891000E+03     -0.45045000E+01
     -0.18886000E+03      0.21600000E+03     -0.44240000E+01
      0.00000000E+00      0.98900000E+01     -0.27504500E+02
      0.00000000E+00      0.98900000E+01     -0.26504500E+02
      0.00000000E+00      0.98900000E+01     -0.25504500E+02
      0.00000000E+00      0.98900000E+01     -0.24504500E+02
      0.00000000E+00      0.98900000E+01     -0.23504500E+02
      0.00000000E+00      0.98900000E+01     -0.22504500E+02
      0.00000000E+00      0.98900000E+01     -0.21504500E+02
      0.00000000E+00      0.98900000E+01     -0.20504500E+02
      0.00000000E+00      0.98900000E+01     -0.19504500E+02
      0.00000000E+00      0.98900000E+01     -0.18504500E+02
      0.00000000E+00      0.98900000E+01     -0.17504500E+02
      0.00000000E+00      0.98900000E+01     -0.16504500E+02
      0.00000000E+00      0.98900000E+01     -0.15504500E+02
      0.00000000E+00      0.98900000E+01     -0.14504500E+02
      0.00000000E+00      0.98900000E+01     -0.13504500E+02
      0.00000000E+00      0.98900000E+01     -0.12504500E+02
      0.00000000E+00      0.98900000E+01     -0.11504500E+02
      0.00000000E+00      0.98900000E+01     -0.10504500E+02
      0.00000000E+00      0.98900000E+01     -0.95045000E+01
      0.00000000E+00      0.98900000E+01     -0.85045000E+01
      0.00000000E+00      0.98900000E+01     -0.75045000E+01
      0.00000000E+00      0.98900000E+01     -0.65045000E+01
      0.00000000E+00      0.98900000E+01     -0.55045000E+01
      0.00000000E+00      0.98900000E+01     -0.45045000E+01
      0.94700000E+01      0.27090000E+02     -0.44240000E+01
      0.94700000E+01      0.27090000E+02     -0.54240000E+01
      0.94700000E+01      0.27090000E+02     -0.64240000E+01
      0.94700000E+01      0.27090000E+02     -0.74240000E+01
      0.94700000E+01      0.27090000E+02     -0.84240000E+01
      0.94700000E+01      0.27090000E+02     -0.94240000E+01
      0.94700000E+01      0.27090000E+02     -0.10424000E+02
      0.94700000E+01      0.27090000E+02     -0.11424000E+02
      0.94700000E+01      0.27090000E+02     -0.12424000E+02
      0.94700000E+01      0.27090000E+02     -0.13424000E+02
      0.94700000E+01      0.27090000E+02     -0.14424000E+02
      0.94700000E+01      0.27090000E+02     -0.15424000E+02
      0.94700000E+01      0.27090000E+02     -0.16424000E+02
      0.94700000E+01      0.27090000E+02     -0.17424000E+02
      0.94700000E+01      0.27090000E+02     -0.18424000E+02
      0.94700000E+01      0.27090000E+02     -0.19424000E+02
      0.94700000E+01      0.27090000E+02     -0.20424000E+02
      0.94700000E+01      0.27090000E+02     -0.21424000E+02
      0.94700000E+01      0.27090000E+02     -0.22424000E+02
      0.94700000E+01      0.27090000E+02     -0.23424000E+02
      0.94700000E+01      0.27090000E+02     -0.24424000E+02
      0.94700000E+01      0.27090000E+02     -0.25424000E+02
      0.94700000E+01      0.27090000E+02     -0.26424000E+02
      0.94700000E+01      0.27090000E+02     -0.27424000E+02
      0.10980000E+02      0.14860000E+02     -0.20009430E+01
      0.10980000E+02      0.14860000E+02     -0.30009430E+01
      0.10980000E+02      0.14860000E+02     -0.40009430E+01
      0.10980000E+02      0.14860000E+02     -0.50009430E+01
      0.10980000E+02      0.14860000E+02     -0.60009430E+01
      0.10980000E+02      0.14860000E+02     -0.70009430E+01
      0.10980000E+02      0.14860000E+02     -0.80009430E+01
      0.10980000E+02      0.14860000E+02     -0.90009430E+01
      0.10980000E+02      0.14860000E+02     -0.10000943E+02
      0.10980000E+02      0.14860000E+02     -0.11000943E+02
      0.10980000E+02      0.14860000E+02     -0.12000943E+02
      0.10980000E+02      0.14860000E+02     -0.13000943E+02
      0.10980000E+02      0.14860000E+02     -0.14000943E+02
      0.10980000E+02      0.14860000E+02     -0.15000943E+02
      0.10980000E+02      0.14860000E+02     -0.16000943E+02
      0.10980000E+02      0.14860000E+02     -0.17000943E+02
      0.10980000E+02      0.14860000E+02     -0.18000943E+02
      0.10980000E+02      0.14860000E+02     -0.19000943E+02
      0.10980000E+02      0.14860000E+02     -0.20000943E+02
      0.10980000E+02      0.14860000E+02     -0.21000943E+02
      0.10980000E+02      0.14860000E+02     -0.22000943E+02
      0.10980000E+02      0.14860000E+02     -0.23000943E+02
      0.10980000E+02      0.14860000E+02     -0.24000943E+02
      0.10980000E+02      0.14860000E+02     -0.25000943E+02
      0.26850000E+02      0.17850000E+02     -0.60849799E+01
      0.26850000E+02      0.17850000E+02     -0.70849799E+01
      0.26850000E+02      0.17850000E+02     -0.80849799E+01
      0.26850000E+02      0.17850000E+02     -0.90849799E+01
      0.26850000E+02      0.17850000E+02     -0.10084980E+02
      0.26850000E+02      0.17850000E+02     -0.11084980E+02
      0.26850000E+02      0.17850000E+02     -0.12084980E+02
      0.26850000E+02      0.17850000E+02     -0.13084980E+02
      0.26850000E+02      0.17850000E+02     -0.14084980E+02
      0.26850000E+02      0.17850000E+02     -0.15084980E+02
      0.26850000E+02      0.17850000E+02     -0.16084980E+02
      0.26850000E+02      0.17850000E+02     -0.17084980E+02
      0.26850000E+02      0.17850000E+02     -0.18084980E+02
      0.26850000E+02      0.17850000E+02     -0.19084980E+02
      0.26850000E+02      0.17850000E+02     -0.20084980E+02
      0.26850000E+02      0.17850000E+02     -0.21084980E+02
      0.26850000E+02      0.17850000E+02     -0.22084980E+02
      0.26850000E+02      0.17850000E+02     -0.23084980E+02
      0.26850000E+02      0.17850000E+02     -0.24084980E+02
      0.26850000E+02      0.17850000E+02     -0.25084980E+02
      0.26850000E+02      0.17850000E+02     -0.26084980E+02
      0.26850000E+02      0.17850000E+02     -0.27084980E+02
      0.26850000E+02      0.17850000E+02     -0.28084980E+02
      0.26850000E+02      0.17850000E+02     -0.29084980E+02
      0.18640000E+02      0.00000000E+00     -0.62416000E+01
      0.18640000E+02      0.00000000E+00     -0.72416000E+01
      0.18640000E+02      0.00000000E+00     -0.82416000E+01
      0.18640000E+02      0.00000000E+00     -0.92416000E+01
      0.18640000E+02      0.00000000E+00     -0.10241600E+02
      0.18640000E+02      0.00000000E+00     -0.11241600E+02
      0.18640000E+02      0.00000000E+00     -0.12241600E+02
      0.18640000E+02      0.00000000E+00     -0.13241600E+02
      0.18640000E+02      0.00000000E+00     -0.14241600E+02
      0.18640000E+02      0.00000000E+00     -0.15241600E+02
      0.18640000E+02      0.00000000E+00     -0.16241600E+02
      0.18640000E+02      0.00000000E+00     -0.17241600E+02
      0.18640000E+02      0.00000000E+00     -0.18241600E+02
      0.18640000E+02      0.00000000E+00     -0.19241600E+02
      0.18640000E+02      0.00000000E+00     -0.20241600E+02
      0.18640000E+02      0.00000000E+00     -0.21241600E+02
      0.18640000E+02      0.00000000E+00     -0.22241600E+02
      0.18640000E+02      0.00000000E+00     -0.23241600E+02
      0.18640000E+02      0.00000000E+00     -0.24241600E+02
      0.18640000E+02      0.00000000E+00     -0.25241600E+02
      0.18640000E+02      0.00000000E+00     -0.26241600E+02
      0.18640000E+02      0.00000000E+00     -0.27241600E+02
      0.18640000E+02      0.00000000E+00     -0.28241600E+02
      0.18640000E+02      0.00000000E+00     -0.29241600E+02
      0.32220000E+02      0.31324687E+02     -0.60022762E+01
      0.32220000E+02      0.30139375E+02     -0.60022762E+01
      0.32220000E+02      0.28954062E+02     -0.60852000E+01
      0.32220000E+02      0.27768750E+02     -0.60852000E+01
      0.32220000E+02      0.26583437E+02     -0.60852000E+01
      0.32220000E+02      0.25398125E+02     -0.60852000E+01
      0.32220000E+02      0.24212812E+02     -0.60852000E+01
      0.32220000E+02      0.23027500E+02     -0.60852000E+01
      0.32220000E+02      0.21842188E+02     -0.60852000E+01
      0.32220000E+02      0.20656875E+02     -0.60852000E+01
      0.32220000E+02      0.19471563E+02     -0.60852000E+01
      0.32220000E+02      0.18286250E+02     -0.60852000E+01
      0.32220000E+02      0.17100938E+02     -0.60852000E+01
      0.32220000E+02      0.15915625E+02     -0.60852000E+01
      0.32220000E+02      0.14730313E+02     -0.60852000E+01
      0.32220000E+02      0.13545000E+02     -0.60849799E+01
      0.32220000E+02      0.12359687E+02     -0.60791901E+01
      0.32220000E+02      0.11174375E+02     -0.60791901E+01
      0.32220000E+02      0.99890625E+01     -0.60537047E+01
      0.32220000E+02      0.88037500E+01     -0.60698482E+01
      0.32220000E+02      0.76184375E+01     -0.61265914E+01
      0.32220000E+02      0.64331250E+01     -0.61265914E+01
      0.32220000E+02      0.52478125E+01     -0.61265914E+01
      0.32220000E+02      0.40625000E+01     -0.61726076E+01
      0.32220000E+02      0.28771875E+01     -0.61726076E+01
      0.32220000E+02      0.16918750E+01     -0.61726076E+01
      0.32220000E+02      0.50656250E+00     -0.61712132E+01
      0.32220000E+02     -0.67875000E+00     -0.61712132E+01
      0.32220000E+02     -0.18640625E+01     -0.61750523E+01
      0.32220000E+02     -0.30493750E+01     -0.62270641E+01
[...]
POINT_DATA      6984
CELL_DATA     36929
SCALARS Resistivity(ohm.m) double 1
LOOKUP_TABLE default
           157.08817           182.35100            86.79789           201.93476           571.94630            97.06734            83.68135            22.97627           148.86489            76.34556           145.22738            95.22798           551.74926            70.12933            71.39033           175.42672           192.72937            24.35996           101.43550           289.35804           157.02909            89.99647            83.01539            52.93017            39.54060            14.12062            99.25154            98.85637            42.96500           100.69245           148.75898            31.15756            98.86357           113.91584            26.02036            96.65984            23.66266            65.94063            29.47391            82.21277           125.14138            98.37490            91.97761           134.38647            81.50680            31.41788            65.03171            68.81557            80.24101            63.14022            83.77500            82.26743           182.89705           109.42531            17.39414            41.66922            59.71073            73.18075           118.27284           172.69471            96.83517           101.48322           152.24615            68.40614           120.25868            24.95513            98.42926            69.23820            62.55695           258.64250           124.45033           349.34493            18.17645            93.87129           109.48127            68.32539           160.43441           104.56759            80.76403           176.50228           113.89825           132.53566           122.12322           107.87301           182.39378            19.84193            21.17769           106.57511            34.18053            74.60868            47.37722           129.81527            85.64208           169.38806           154.34786           138.76115            87.99942            97.75798            29.43221            82.41389            94.56111            81.77078           101.23287            83.46284            77.41086            65.61727            88.01313           185.42193           115.97742           129.18375            25.59019            61.88169           100.36132            14.81017            12.03316            25.81316            16.18721            20.15477           131.27517           333.27966           131.92132           147.49929           132.69611            18.18147            42.49684            80.15038            84.16532            78.10869           138.00326           134.76269            41.48020            57.08716            89.44388            75.85752            84.03428           291.09872            83.65597            58.97404           106.83973            81.74314            73.79167            30.92474           140.92429            86.76180            65.36395            89.22041           123.94369            83.61480            61.69772            13.03696            75.30625           141.25554           150.22079           107.80991           178.45850           203.24476            85.30249            44.83311            32.97301            74.31400            93.08258            88.66065            17.92550           132.73118            48.83365           716.62659            83.78544            19.46772           176.55726            84.94323           123.00835            74.89835           165.45948           112.21266           203.11142           100.48928            63.52128           160.90047            18.87606            80.05351            87.64907            74.90939            45.80268            73.13682           353.98421           199.44248           147.53044            56.40837           236.90388            64.97087            73.87910            27.48575            91.76332            61.37575           212.85028           128.01547            99.11420            24.82388            83.75938            78.26808            22.26619           242.28891           358.81231            78.62636            45.40560            45.67984            13.04115            37.21539           101.23923           108.30209            86.06240            77.09693            19.15128            81.87367           156.50055            85.79832            48.49720            62.12996            52.92382            80.64173           298.38459            85.10472           135.83524            52.93391            17.03377            84.93382            37.35717            81.82387           107.32941           129.07042            24.38359            34.56819           106.93571            49.40634           126.74003           145.24935           120.64155           190.72147           101.91252            69.94882            96.10586           100.17652            53.06403            18.20651            70.25136           213.26811           232.68798           128.33078           102.57268           102.93734           166.30292           189.57034           249.64267            41.59341            84.11122            84.54098           289.85685            22.09222           118.05662            77.25081            66.74893            23.79934            53.17439            33.29045            94.68088            57.71268           221.75766            74.48917           185.89570           226.26323           192.40737            80.79824           156.58911           116.80925            90.47422            85.43039            88.44802            42.07186            48.31627            26.19065           310.50346            27.56953            47.07364            70.57249           233.03381            27.53156            43.61155            27.47382            77.64021            59.32812           122.73848           158.25437           147.12587            72.79247            61.37483           140.24547           100.02671            92.81138           183.86644           382.35192           202.81975            56.40962           151.75317           141.48113            77.44085           149.91807            98.73151           121.44633            47.37107           151.67665            90.65055            28.58861           177.13226            29.00275           117.70764           344.51042            37.12612           249.97138            64.50995            83.31575            60.22590            29.00279            64.00789           113.17382           104.26726           121.05827            26.56500            98.84940            94.52422           129.90571           231.05122            21.22798            21.88993           164.28298            14.81108            36.47217           104.62076            73.56079           118.23711            40.94899            65.46510            46.23317           154.13228            79.98504            72.89022           106.93974            37.78517            90.30263           131.81539            21.41412             5.47631           119.41385            43.28843            85.71048            18.99920            29.61253            63.04798           323.75919            63.19003           713.57604            25.35143           165.81509            83.10948           224.27677            24.85916           124.27590           173.60857            76.10672            22.27295           119.87563            83.69945           118.72659            82.65335           100.14763            92.25642           136.88457           248.95004           114.41155           190.25179            87.13202           122.21234            32.81540            33.24859            34.64791            65.07504           127.81593           104.70019           122.84073            77.57899            42.98021            29.24076            68.67513            86.37983            40.50446           131.26340            88.23128            91.52304           129.64201            60.89157            63.98308           137.30497           109.99857            61.29651           518.18737           168.64126           109.34378            24.07244            38.82996            26.72941           223.62774           124.63010            71.24594            80.86626           165.72864            43.61226           146.82695            84.41365            77.03665           161.02648            51.03344           224.53141           259.70184            67.51969            95.59526           199.03297            68.67088           136.25927            86.94506            40.71931            23.67269            80.03614            23.94793            86.98013           171.35745            85.25031            89.56374            43.87954           257.69986           187.85472           178.80205            28.50771            94.79294            27.42310            72.50493            78.24578           174.12514           233.84226            67.49706           128.79448            83.48605           128.99609            78.56407            49.64540            26.62316           116.64614            16.34507            86.05675            21.61762            23.18480           103.37417            25.77409           151.29129           100.56014            17.48079           125.83148            94.02589            66.71656            97.15766           154.15810           117.27747           214.29911            90.17355           242.71750            57.22470            75.49795            90.76429           142.71780           125.42336            29.84505           177.59213           219.29185           140.36993            66.67387            86.46906           150.85863           211.25232           100.26552            66.71259            94.64823           141.21027            79.67987           106.42170           114.73218            76.74975           169.85790            21.78997           128.90677           119.54731            84.20527           139.95366            27.99766            62.77154           115.41069           136.47905            77.96761            21.42097            92.92969             8.35949            58.77381           136.65815            18.11969            80.60680           342.86205           150.02571           176.33034            44.61407             9.11605            14.20766           108.18883            77.50483           218.46098            64.80282            54.13391            28.79736            15.27942           228.52044            91.10652            95.12650            73.22555            33.21883            36.70289           123.54830            29.21604           125.85159            79.38249            67.24545             9.92327           177.52182            30.83006            25.02225            61.06679            83.30069            89.65658            51.91458           228.36930            91.83429            76.25329           150.78523            29.56538           115.18670            95.86216            83.18727            86.17431            70.07214            74.84614            19.77661           189.82704            78.25584           134.34076           123.72553           100.84582           162.29307            33.79131           116.37383           161.16751            33.59689            80.19667            21.53470            26.99325           194.16187            48.91053            88.82217           390.90311            41.37395            87.19709            79.45752            68.86027           145.26234           512.92622            50.98936            80.12271            20.13823           154.09970           209.25574           203.17478           190.22195            89.41698           245.44033            99.38173            23.94221            74.95738            35.38433            22.74003            43.40206            47.60914            36.38705            57.68856           433.30880            92.13553            27.37833           194.32813            83.76975            43.32178            78.95851           227.86271           159.38817            19.84776            76.56490            20.43676            16.80346           175.33376           127.75350            79.60822           140.63780            66.10391           115.79830           126.83540            30.70089            56.52112            17.18656            20.57893           230.06768           186.42537            77.49834           129.86526            54.09658           123.09782            30.89908           191.03656           122.37557            99.41689            56.22392            27.24119            80.22317           142.90853            75.52109            93.03422            61.30126            40.83436           109.21480            82.09055            91.64848            61.37629            40.47003           145.43832           273.25051           187.21891           237.31008            67.15153            42.99815            78.49679            81.39776            70.31393            78.29182            68.99197           141.97691            98.27585            52.29801           133.52233           180.47641           121.79088           221.33274             4.78204           163.78928            12.67110            89.50782            15.88860           161.47584           172.82361            82.18404            99.31779            51.37573            36.83813            42.85055            26.33472           162.77206           155.73161            73.90662            79.11542            31.70937           142.46976           143.32812            15.05205            13.38758           141.73475            26.81639            13.79779           140.25823            13.04224            27.45411            75.78166           133.64155            11.55768           178.63833            82.24871           116.90352           389.49346            57.86297            24.87867           120.13780           116.59069           120.90630             8.96219           123.48113           194.16072            26.52544            64.83513           285.91075           136.17733            88.17514            82.61716            37.10777           144.74376           124.63694           215.95402           131.52510           160.00599           191.64139            25.24734           127.35575            68.23749            26.07001           113.73279           151.63032           102.06002            84.25902            43.78970            55.19393            90.34759           181.74074           156.01996            83.71940            40.18072            55.46490            15.68310            65.08834            42.28511           109.00630            36.23299           143.16554           104.61126            17.24359            17.78737            16.23023            51.18082            30.93206           120.04439           226.45023            30.55174           182.61793            26.49845            67.23535            97.92870            14.23189            86.96641           159.97217           433.69397            69.34216            65.43293           220.49317            38.98829           108.01648            75.08734           143.08752            21.92977           131.49166            69.12729           209.41298           114.32035            52.37323            99.46118           115.16491            87.52613            81.50243           194.02199            61.89890           116.04841            80.28248           164.75741            40.27372            22.40427            73.32155           199.20887            60.78129           148.99785            19.49380           114.10758            68.77697            29.46983            90.75877           385.70367           142.43229            79.11039            24.08451            27.61733            71.76870            91.70910            96.11404            35.99896            23.80560             6.98392            67.98802           125.01913           193.03024           239.92679            62.79760            87.34003            49.35076            29.79451            31.86618            66.03408            72.35757            28.20924            99.23927            83.90237            51.20459             8.22698            90.68614            27.94414           146.81342            84.87619            29.26805            91.83077            84.75403            45.26320           113.24692            60.36716            60.66968            57.83166            86.92034            83.35119            91.94467           102.81706            83.80320            55.31104            82.99022           130.10715           214.97655            70.16176            18.52006            30.42107           375.45031            33.88589            83.43142           152.13832            83.60389            76.35964            82.61150           129.33064           109.15851            70.17606            20.63274            23.81069            90.41223            98.01913            71.54525           149.60666            22.01285            98.82937            15.12333           188.86734            78.01903            91.38579            28.65761            14.98977            80.16357            88.77029            82.31803            97.14845            27.03062            39.22020            97.02108           146.14178            44.84461            39.55290            59.78866            33.93163           135.10257           149.08818             5.05282            84.21156            31.59075            23.92449            15.79894           200.35689           101.88215           130.85554            91.47137           154.97591            12.72121            64.57128            82.64112            79.48018           136.02753            60.51527            16.11130            69.09046           127.49001            62.13260           119.00213            63.75053            11.83368            83.05600            72.23076           492.50583            14.71836            50.77702           114.43701            14.60385            61.81320            58.59483            81.38609            74.82156            24.39209            97.26020            83.64637            81.17014           162.05504           188.09324           146.90392            66.16505           101.89527           104.56679            73.59883           151.03644            89.19464            70.54371            37.17849            15.71196           113.55616            19.57382            46.78081           190.59868           520.65278            85.36475            63.46771            48.52789            15.24459           326.79714            79.65671           167.68028            50.87882           132.59005            90.11642            89.65723            83.01965            36.42924           134.79257           490.75466           168.48354            70.27596           114.55989            88.52326            12.13431           161.79556            98.43899            92.37193            15.54765           549.35244            24.53108           111.57717           101.14404           110.31579           147.19877            13.92703            37.91182            85.30497            27.35010           131.71498             6.10148           276.85096            54.64082            54.98610            85.43110           146.68712           254.64236           192.68040            88.27436           107.54563            87.21782            84.27790           269.40252           136.72700           146.60663            77.58612           108.13538            73.17093            82.82857            20.31005            55.00990           216.17037           107.73724           145.05279           161.40265            82.06209  