# vtk DataFile Version 3.0
Output from R3t
ASCII
DATASET UNSTRUCTURED_GRID
POINTS       6291 double
      0.00000000E+00      0.98900000E+01     -0.25000000E+02
      0.00000000E+00      0.98900000E+01     -0.24000000E+02
      0.00000000E+00      0.98900000E+01     -0.23000000E+02
      0.00000000E+00      0.98900000E+01     -0.22000000E+02
      0.00000000E+00      0.98900000E+01     -0.21000000E+02
      0.00000000E+00      0.98900000E+01     -0.20000000E+02
      0.00000000E+00      0.98900000E+01     -0.19000000E+02
      0.00000000E+00      0.98900000E+01     -0.18000000E+02
      0.00000000E+00      0.98900000E+01     -0.17000000E+02
      0.00000000E+00      0.98900000E+01     -0.16000000E+02
      0.00000000E+00      0.98900000E+01     -0.15000000E+02
      0.00000000E+00      0.98900000E+01     -0.14000000E+02
      0.00000000E+00      0.98900000E+01     -0.13000000E+02
      0.00000000E+00      0.98900000E+01     -0.12000000E+02
      0.00000000E+00      0.98900000E+01     -0.11000000E+02
      0.00000000E+00      0.98900000E+01     -0.10000000E+02
      0.00000000E+00      0.98900000E+01     -0.90000000E+01
      0.00000000E+00      0.98900000E+01     -0.80000000E+01
      0.00000000E+00      0.98900000E+01     -0.70000000E+01
      0.00000000E+00      0.98900000E+01     -0.60000000E+01
      0.00000000E+00      0.98900000E+01     -0.50000000E+01
      0.00000000E+00      0.98900000E+01     -0.40000000E+01
      0.00000000E+00      0.98900000E+01     -0.30000000E+01
      0.00000000E+00      0.98900000E+01     -0.20000000E+01
      0.94700000E+01      0.27090000E+02     -0.20000000E+01
      0.94700000E+01      0.27090000E+02     -0.30000000E+01
      0.94700000E+01      0.27090000E+02     -0.40000000E+01
      0.94700000E+01      0.27090000E+02     -0.50000000E+01
      0.94700000E+01      0.27090000E+02     -0.60000000E+01
      0.94700000E+01      0.27090000E+02     -0.70000000E+01
      0.94700000E+01      0.27090000E+02     -0.80000000E+01
      0.94700000E+01      0.27090000E+02     -0.90000000E+01
      0.94700000E+01      0.27090000E+02     -0.10000000E+02
      0.94700000E+01      0.27090000E+02     -0.11000000E+02
      0.94700000E+01      0.27090000E+02     -0.12000000E+02
      0.94700000E+01      0.27090000E+02     -0.13000000E+02
      0.94700000E+01      0.27090000E+02     -0.14000000E+02
      0.94700000E+01      0.27090000E+02     -0.15000000E+02
      0.94700000E+01      0.27090000E+02     -0.16000000E+02
      0.94700000E+01      0.27090000E+02     -0.17000000E+02
      0.94700000E+01      0.27090000E+02     -0.18000000E+02
      0.94700000E+01      0.27090000E+02     -0.19000000E+02
      0.94700000E+01      0.27090000E+02     -0.20000000E+02
      0.94700000E+01      0.27090000E+02     -0.21000000E+02
      0.94700000E+01      0.27090000E+02     -0.22000000E+02
      0.94700000E+01      0.27090000E+02     -0.23000000E+02
      0.94700000E+01      0.27090000E+02     -0.24000000E+02
      0.94700000E+01      0.27090000E+02     -0.25000000E+02
      0.10980000E+02      0.14860000E+02     -0.20000000E+01
      0.10980000E+02      0.14860000E+02     -0.30000000E+01
      0.10980000E+02      0.14860000E+02     -0.40000000E+01
      0.10980000E+02      0.14860000E+02     -0.50000000E+01
      0.10980000E+02      0.14860000E+02     -0.60000000E+01
      0.10980000E+02      0.14860000E+02     -0.70000000E+01
      0.10980000E+02      0.14860000E+02     -0.80000000E+01
      0.10980000E+02      0.14860000E+02     -0.90000000E+01
      0.10980000E+02      0.14860000E+02     -0.10000000E+02
      0.10980000E+02      0.14860000E+02     -0.11000000E+02
      0.10980000E+02      0.14860000E+02     -0.12000000E+02
      0.10980000E+02      0.14860000E+02     -0.13000000E+02
      0.10980000E+02      0.14860000E+02     -0.14000000E+02
      0.10980000E+02      0.14860000E+02     -0.15000000E+02
      0.10980000E+02      0.14860000E+02     -0.16000000E+02
      0.10980000E+02      0.14860000E+02     -0.17000000E+02
      0.10980000E+02      0.14860000E+02     -0.18000000E+02
      0.10980000E+02      0.14860000E+02     -0.19000000E+02
      0.10980000E+02      0.14860000E+02     -0.20000000E+02
      0.10980000E+02      0.14860000E+02     -0.21000000E+02
      0.10980000E+02      0.14860000E+02     -0.22000000E+02
      0.10980000E+02      0.14860000E+02     -0.23000000E+02
      0.10980000E+02      0.14860000E+02     -0.24000000E+02
      0.10980000E+02      0.14860000E+02     -0.25000000E+02
      0.26850000E+02      0.17850000E+02     -0.20000000E+01
      0.26850000E+02      0.17850000E+02     -0.30000000E+01
      0.26850000E+02      0.17850000E+02     -0.40000000E+01
      0.26850000E+02      0.17850000E+02     -0.50000000E+01
      0.26850000E+02      0.17850000E+02     -0.60000000E+01
      0.26850000E+02      0.17850000E+02     -0.70000000E+01
      0.26850000E+02      0.17850000E+02     -0.80000000E+01
      0.26850000E+02      0.17850000E+02     -0.90000000E+01
      0.26850000E+02      0.17850000E+02     -0.10000000E+02
      0.26850000E+02      0.17850000E+02     -0.11000000E+02
      0.26850000E+02      0.17850000E+02     -0.12000000E+02
      0.26850000E+02      0.17850000E+02     -0.13000000E+02
      0.26850000E+02      0.17850000E+02     -0.14000000E+02
      0.26850000E+02      0.17850000E+02     -0.15000000E+02
      0.26850000E+02      0.17850000E+02     -0.16000000E+02
      0.26850000E+02      0.17850000E+02     -0.17000000E+02
      0.26850000E+02      0.17850000E+02     -0.18000000E+02
      0.26850000E+02      0.17850000E+02     -0.19000000E+02
      0.26850000E+02      0.17850000E+02     -0.20000000E+02
      0.26850000E+02      0.17850000E+02     -0.21000000E+02
      0.26850000E+02      0.17850000E+02     -0.22000000E+02
      0.26850000E+02      0.17850000E+02     -0.23000000E+02
      0.26850000E+02      0.17850000E+02     -0.24000000E+02
      0.26850000E+02      0.17850000E+02     -0.25000000E+02
      0.18640000E+02      0.00000000E+00     -0.20000000E+01
      0.18640000E+02      0.00000000E+00     -0.30000000E+01
      0.18640000E+02      0.00000000E+00     -0.40000000E+01
      0.18640000E+02      0.00000000E+00     -0.50000000E+01
      0.18640000E+02      0.00000000E+00     -0.60000000E+01
      0.18640000E+02      0.00000000E+00     -0.70000000E+01
      0.18640000E+02      0.00000000E+00     -0.80000000E+01
      0.18640000E+02      0.00000000E+00     -0.90000000E+01
      0.18640000E+02      0.00000000E+00     -0.10000000E+02
      0.18640000E+02      0.00000000E+00     -0.11000000E+02
      0.18640000E+02      0.00000000E+00     -0.12000000E+02
      0.18640000E+02      0.00000000E+00     -0.13000000E+02
      0.18640000E+02      0.00000000E+00     -0.14000000E+02
      0.18640000E+02      0.00000000E+00     -0.15000000E+02
      0.18640000E+02      0.00000000E+00     -0.16000000E+02
      0.18640000E+02      0.00000000E+00     -0.17000000E+02
      0.18640000E+02      0.00000000E+00     -0.18000000E+02
      0.18640000E+02      0.00000000E+00     -0.19000000E+02
      0.18640000E+02      0.00000000E+00     -0.20000000E+02
      0.18640000E+02      0.00000000E+00     -0.21000000E+02
      0.18640000E+02      0.00000000E+00     -0.22000000E+02
      0.18640000E+02      0.00000000E+00     -0.23000000E+02
      0.18640000E+02      0.00000000E+00     -0.24000000E+02
      0.18640000E+02      0.00000000E+00     -0.25000000E+02
     -0.51140522E+00      0.71588023E+01     -0.20000000E+01
     -0.49593660E+00      0.60927425E+01     -0.20000000E+01
      0.41797281E+00      0.66361707E+01     -0.20000000E+01
      0.43302881E+00      0.55428034E+01     -0.20000000E+01
      0.13561809E+01      0.61090631E+01     -0.20000000E+01
      0.13734931E+01      0.50157223E+01     -0.20000000E+01
      0.22946745E+01      0.55837861E+01     -0.20000000E+01
      0.23105556E+01      0.45126988E+01     -0.20000000E+01
      0.32265139E+01      0.50650006E+01     -0.20000000E+01
      0.32146856E+01      0.61321849E+01     -0.20000000E+01
      0.41392408E+01      0.56152676E+01     -0.20000000E+01
      0.41270756E+01      0.66752199E+01     -0.20000000E+01
      0.50462507E+01      0.61598431E+01     -0.20000000E+01
      0.50297219E+01      0.72122270E+01     -0.20000000E+01
      0.59521252E+01      0.67000404E+01     -0.20000000E+01
      0.59630340E+01      0.56527579E+01     -0.20000000E+01
      0.68728908E+01      0.61848904E+01     -0.20000000E+01
      0.68806275E+01      0.51415218E+01     -0.20000000E+01
      0.77829501E+01      0.56725643E+01     -0.20000000E+01
      0.77944939E+01      0.46334428E+01     -0.20000000E+01
      0.86893990E+01      0.51697938E+01     -0.20000000E+01
      0.86832209E+01      0.62039514E+01     -0.20000000E+01
      0.95803132E+01      0.57034205E+01     -0.20000000E+01
      0.96043383E+01      0.46763211E+01     -0.20000000E+01
      0.10484532E+02      0.52092251E+01     -0.20000000E+01
      0.10462370E+02      0.62354564E+01     -0.20000000E+01
      0.11361191E+02      0.57398163E+01     -0.20000000E+01
      0.11385157E+02      0.47172493E+01     -0.20000000E+01
      0.12269868E+02      0.52491723E+01     -0.20000000E+01
      0.12234766E+02      0.62715667E+01     -0.20000000E+01
      0.13145121E+02      0.57852105E+01     -0.20000000E+01
      0.13105170E+02      0.67981838E+01     -0.20000000E+01
      0.13996842E+02      0.63084968E+01     -0.20000000E+01
      0.13974063E+02      0.73252275E+01     -0.20000000E+01
      0.14866600E+02      0.68365691E+01     -0.20000000E+01
      0.14844683E+02      0.78553010E+01     -0.20000000E+01
      0.15738493E+02      0.73655798E+01     -0.20000000E+01
      0.15717492E+02      0.83861582E+01     -0.20000000E+01
      0.16611680E+02      0.78942206E+01     -0.20000000E+01
      0.16592536E+02      0.89174787E+01     -0.20000000E+01
      0.17469384E+02      0.84568878E+01     -0.20000000E+01
      0.17466436E+02      0.94547743E+01     -0.20000000E+01
[...]
POINT_DATA      6291
CELL_DATA     33106
SCALARS Resistivity(ohm.m) double 1
LOOKUP_TABLE default
           102.85387           105.68955           105.99797            99.47543           109.76424           104.36366           106.73689            92.65285           100.23640           104.16829           104.02796           101.23566            89.38720            85.51069           102.71448           101.23193           102.82142           109.57642           103.14477            99.58984           107.53305            98.41903           110.93065           101.09845           150.55240           101.25093            94.56699           104.33929           101.40147            86.13357            98.97745           102.74436           102.43636           101.19108           102.32958           103.80303           100.26776           100.83626           101.73902            93.81595           107.91847            92.70898           101.26030           102.03670           102.35277           107.21341           101.98280            94.06115            99.88658           103.09430            87.36200           107.37894           103.33735           102.24883           106.60667            97.33329            94.02165           107.53155           106.89830           110.04302           103.87178           111.74433           101.58133           100.00839            85.40483           101.68036           101.81834           101.50714           101.17503           103.49605           131.79461           104.32077           100.12960           101.99606            95.34496           100.92238           105.01203           115.95045            92.93490            91.80637            99.46748            99.75787            94.26004            92.86742           115.71435           101.82931           123.77756           106.19286           107.80396           106.75559           100.34798           100.90309           104.31801           112.54431           102.36425           104.27231           114.21176           102.06507           101.10933           100.06451           100.06105            99.34293           105.64216            98.13247            98.76597           127.88381           100.15424           103.04960           103.75346           152.32991           105.04617           101.08794           100.29400            95.36080           104.71638           101.88568           100.57696           103.91472            93.40543            92.46818            95.27236            96.67574            99.84350           102.17206           118.60110           103.55250           103.03880           101.26447           100.64951           101.06639            83.87302           102.89170           101.98394           109.14806           104.29936           104.45077           104.95263           102.90849           103.89162           102.95301            99.96900            95.35134            90.93198           104.06210           105.29580           105.14449           138.62580           100.41861           112.62506            99.09506            98.90338           105.42783           101.18612           101.13095           104.36112           101.04737           102.16139           119.03858           102.02316            95.32766           109.40489           107.02226           128.56226           125.83756           104.80959           102.80221           138.79101           103.33663            79.48545           107.58098            97.38634           106.94511           104.50148           101.44846           101.26224           110.52932           101.16654           102.19912           102.08722           101.33277            97.87733            97.59865           102.02783           105.30965           103.14694            95.84131           104.68389           103.90180            95.35207           101.62694            99.32469           103.05466           105.57666           105.76061            99.50799           100.73375           107.41403            91.79725           104.21453           100.92116           103.55237           101.22818            98.09448            95.00393           101.77087            83.57429            94.76165           102.77007            96.78704            97.43364           108.55317           100.36970           104.92154           106.41984           101.34020           108.73749           101.66631           103.21764            98.27084           101.92238           103.19317           111.63873           104.13731            99.73530           107.73591            99.90982            96.69982           108.15473            96.42902           102.11048           101.48177           107.52693           104.29059            90.54749           102.60451           102.74966            97.85862           101.09587           102.47138            89.72161           100.15230            99.87084           101.45362           100.66709            99.06103           101.70954           102.14955           107.14782           101.41272           105.41204           109.12977            93.89871           105.12523            99.82175           102.00393           101.92963           101.84965            93.96994           100.73976           100.83918            89.16112           100.45014           104.32257           102.06240           100.99368           101.58216           115.79284           103.68382           103.09275           101.88521           104.92571            99.78973            91.82357            98.17967           110.34972           111.99497            89.37905           100.82080           101.09634           101.24408           128.54693            99.24084           102.62553           106.62094           105.52183           101.47329           100.89184            87.83413           119.42785           105.37795           100.81434           106.54530           103.23851            99.39229           108.76609           101.39337            97.55670            97.96987           109.53268            92.10009           105.59315            98.97959            97.46092           104.78027           105.32242           104.74016           103.81967           102.76996            99.53810           103.62227           113.23459           105.24658           101.89974           100.78196           100.91642           110.83554           141.60267           102.06133           100.44432           107.80226           112.78757            92.28926           107.46014           102.57258           124.48204           102.62271           100.31920           104.92777           102.45459           101.01084           102.20982           157.64915            96.07017           102.23075           122.75448           125.84185           101.87456           101.09806            99.84902           105.12120            98.77102           104.29198           101.59920           102.56219           105.07490           101.40956           102.24500           101.71779           101.02578            98.60056           103.17642           104.85788           116.16628            96.73570            94.79127           101.09237            97.98959            94.35443           103.80019            98.93664            99.62454           101.43546            97.25782           101.39091           103.72663           114.13740            68.81807           105.67876           102.25180            99.89284           102.70718           102.45441            97.88991           103.54632           122.72829            96.83401           101.67241           102.19826           100.91501            99.39933           101.78063           101.04753            98.62625            89.92603            90.94988           106.24427           101.11027            97.99486           103.24219           110.77843            85.11770           105.43950           101.67112            97.79630           110.63875           101.73099            99.45555           102.02901            98.89479            99.64499           101.87734           101.87275            97.45900           104.17174           118.33825           108.69951           101.83050           105.37568            93.48197           109.15207            97.15852           101.73514           105.95309           105.68290           102.25056           101.72998           105.27036            97.93645            99.59427           108.14834           101.57761            96.97593            97.77996           111.62936           101.40972           100.58272           102.35422           106.60665            95.19753           102.55858           101.92815            98.29635            94.37484           157.80824           103.16572           102.33323            93.97738           109.53195           103.95976            99.38718           103.35356           101.66321           104.70638           100.84087            99.48020           101.82418           103.73506           101.58631           114.06543           100.74708            83.06299            99.05124           119.42871           102.82175           102.25559           103.10442           105.16108           101.78824           112.44022            91.43522           114.40426            95.52190           105.73025           100.75151           102.07296           102.92529            98.69918           101.18588           100.59168            97.77955           102.80787           100.83791           106.48638           101.21683           101.96034            97.29687           100.85645           113.83778           102.69575           100.66334           106.26897           105.32550           106.02264           103.57232           104.47118           104.41823           103.40653           103.18571           101.16991           102.30694           102.26742           123.60808           103.93496            99.49561           107.88626           101.75869            89.61856            98.94175           102.32255           101.42752           105.38671           100.26299            93.09885           102.13917           103.11033           101.01809            98.53583           129.03028           101.40258            92.95031            98.53147           101.71693            99.10451           106.54168           107.06578           102.98440           102.06528            95.04487           100.43841           105.56631           104.42501            98.02211            99.00111           108.56309           101.38020           100.07733           101.42105           102.86328           105.97460            99.81383           100.63503           106.23002            90.15381            97.16047           102.70815           104.98278           100.75750           115.86328            93.55288           119.42690           101.19304            86.68869            88.20856           103.15588           103.33996           102.79994           105.35260            96.47602           100.13439           121.44520           105.31669           103.51714            90.14488           113.70647           105.87945           100.96329           106.24011           105.46653           102.27906           101.89097           109.84344           109.76185           101.24922           103.55424           108.09458            90.21297            99.43847           107.52147            97.50267            99.49912           105.99766           103.83364           106.26980            99.21259           106.43717            99.27753           102.62031           104.31190           106.97386           107.32282            75.83657           128.52133           105.76740           101.25334           104.52233            99.98230           105.43128            98.84063           130.34643           102.62861           102.50314           106.89056           101.49789           106.58980           101.69400            95.70762           104.95844           100.75374           107.06198           101.27578           101.12486           101.18472           102.76428            98.71443           103.86131            99.67315            98.80616           101.90342            93.48095           102.88393           101.85125           106.71413           102.34720           101.40329            97.60697            97.16797           124.06911           105.41441           105.68213           101.37029           102.62382           101.68462           102.77594            99.47733           103.50008           105.89883           123.96601           102.71162           102.46753            63.40057            98.23187            95.17873           101.32900           102.80924           106.06779            96.62420            94.11416           102.84148            99.68778           112.29356           103.70680           101.68582            93.50130            86.36957            99.36167           101.24068            95.67382           104.01662            95.26990            92.18769           109.72077            99.66749           135.53752            68.73434           102.84032           101.02017           109.26143           103.75643           104.15698           102.46733            99.92117           101.28617           102.80579           102.29130           101.84030            98.54986            96.10118           104.39602            97.19257           102.06982            97.62568            95.84238            97.09509            99.11953            88.44228            87.62191           100.66957            94.67872           101.58496            97.48311           103.22495           101.70066           105.68685           112.09214            91.82179           101.01816           100.45449           101.06480           113.47095           111.79537           111.16117           108.55823           106.17091           110.79490            98.65029           108.58053           104.61246            99.59144           118.28136            80.58273           102.62453           108.54413           101.54205           113.23314           109.18685            98.05552           104.58946            99.61768            99.04112            97.37569            94.01063           102.31393           103.46878           101.65700           101.93245           113.08709           113.80782           101.79331           103.37586            96.41207           119.58803           111.18925           103.12265           112.75138            92.14123           103.38397           100.34228           101.70079           130.93716            98.12359            99.24190           101.80472           100.88873           109.05788            85.68385           104.71866           100.81768           100.15230           100.38272           106.49248            98.53629           108.13669           101.88031           104.88295            99.66784           104.66174           109.46112           102.09975           101.30289           111.78063            99.34832           105.28164           102.98550           108.58230           109.86998           104.80089            97.20482           104.59785           101.84175           103.25145           103.54807            99.19862           100.78398           103.28980            84.50365           101.69991           138.71042           105.49762           117.72629           103.79914           102.86591            94.53660           101.76161           102.30869           108.98026           106.38952            98.17156           109.03024            91.98005           101.80326            96.53525           103.65937            96.95460           123.59185           101.11687           101.43037           102.04636           100.12918           102.09523           105.26022            90.91837           108.60726            97.89338           100.80783           108.02758            98.94751            97.79084           102.31238            94.15449           106.89416           101.87452           101.59788           108.27516            97.54538           100.04375           106.39975            98.39934            94.46941           103.46557           104.41458            97.95105           106.52137           101.28602            98.47548            97.43971           102.62245           106.87631           106.67505            97.85460           101.09621            99.81414           114.58822           100.69129           105.80951           101.67979           104.28037           101.72043           106.03559            99.63193           104.92217           105.94651           102.79223           100.87712           102.15136           103.04967            99.67525           101.62812            99.95942           104.29890           104.66134           101.88497            99.45812            97.39527            96.36759            92.75324            97.17754           104.04320            96.81643           103.24336           109.08320           102.32445           110.95765           101.91645           113.70474           101.87813           106.52081           103.58100           100.71518           101.89486           101.26744            98.94519           101.29135           112.07618           101.97675           103.64198           102.09954            96.64433            94.48511           101.58309           135.03497            98.73702            92.08146           101.79654           104.13960           101.00540            86.52163            98.66323           112.04950            99.39333            99.47906           100.29700           102.20011           101.23678           100.32179           172.39320           102.58039            92.83272           102.68249           122.93584           106.33510           101.51999           124.36725            93.44594           107.72902           101.91532           103.16577           106.44922           108.30175           104.07608           103.66456           108.80010            96.99189            99.04381            98.18284           102.20451           103.49044           111.86575           112.70175            97.72142            99.65069           101.38158           102.24036            83.76510            99.77963           104.88673           101.99112            94.45781           108.57879           110.38822           100.99316           101.43153           100.30608           106.52833           104.60021            98.24781           105.16639           101.47390           112.24257           103.57195           101.23473           107.67768           101.18641           102.61788           101.59854            86.46536           104.23124            99.48681            84.37873           106.04633            97.36318           106.08294            99.16487           143.88343           103.24158           109.31008            98.05991           101.32570           103.91429           125.48309           102.25688            94.90524            98.98644            90.20164           103.14321           103.05945           109.19932           119.83077           104.80135            99.27216           104.10048           111.69653           148.86179           101.17668           104.19384           104.04561           101.75500           105.16723           118.47057           100.80636           107.22776            99.45095           109.58511           104.07091            92.97112           101.69108            88.34051           101.99073           100.92926           106.02499           101.66097            95.57847            98.82986           102.65460           103.94449           103.79969           100.74069           102.85806           112.17890           104.30224           100.68158            69.65460            94.04868           109.70590            97.81624           107.19812  