# vtk DataFile Version 3.0
Output from R3t
ASCII
DATASET UNSTRUCTURED_GRID
POINTS       2006 double
      0.32220000E+02      0.32510000E+02     -0.59627149E+01
      0.32220000E+02     -0.54200000E+01     -0.62416000E+01
     -0.53700000E+01     -0.54200000E+01     -0.47973441E+01
     -0.53700000E+01      0.32510000E+02     -0.44240000E+01
      0.32220000E+02      0.32510000E+02     -0.39512715E+02
      0.32220000E+02     -0.54200000E+01     -0.39791600E+02
     -0.53700000E+01     -0.54200000E+01     -0.38347344E+02
     -0.53700000E+01      0.32510000E+02     -0.37974000E+02
      0.21571000E+03      0.21600000E+03     -0.60852000E+01
      0.21571000E+03     -0.18891000E+03     -0.62416000E+01
     -0.18886000E+03     -0.18891000E+03     -0.45045000E+01
     -0.18886000E+03      0.21600000E+03     -0.44240000E+01
      0.00000000E+00      0.98900000E+01     -0.27504500E+02
      0.00000000E+00      0.98900000E+01     -0.26504500E+02
      0.00000000E+00      0.98900000E+01     -0.25504500E+02
      0.00000000E+00      0.98900000E+01     -0.24504500E+02
      0.00000000E+00      0.98900000E+01     -0.23504500E+02
      0.00000000E+00      0.98900000E+01     -0.22504500E+02
      0.00000000E+00      0.98900000E+01     -0.21504500E+02
      0.00000000E+00      0.98900000E+01     -0.20504500E+02
      0.00000000E+00      0.98900000E+01     -0.19504500E+02
      0.00000000E+00      0.98900000E+01     -0.18504500E+02
      0.00000000E+00      0.98900000E+01     -0.17504500E+02
      0.00000000E+00      0.98900000E+01     -0.16504500E+02
      0.00000000E+00      0.98900000E+01     -0.15504500E+02
      0.00000000E+00      0.98900000E+01     -0.14504500E+02
      0.00000000E+00      0.98900000E+01     -0.13504500E+02
      0.00000000E+00      0.98900000E+01     -0.12504500E+02
      0.00000000E+00      0.98900000E+01     -0.11504500E+02
      0.00000000E+00      0.98900000E+01     -0.10504500E+02
      0.00000000E+00      0.98900000E+01     -0.95045000E+01
      0.00000000E+00      0.98900000E+01     -0.85045000E+01
      0.00000000E+00      0.98900000E+01     -0.75045000E+01
      0.00000000E+00      0.98900000E+01     -0.65045000E+01
      0.00000000E+00      0.98900000E+01     -0.55045000E+01
      0.00000000E+00      0.98900000E+01     -0.45045000E+01
      0.94700000E+01      0.27090000E+02     -0.44240000E+01
      0.94700000E+01      0.27090000E+02     -0.54240000E+01
      0.94700000E+01      0.27090000E+02     -0.64240000E+01
      0.94700000E+01      0.27090000E+02     -0.74240000E+01
      0.94700000E+01      0.27090000E+02     -0.84240000E+01
      0.94700000E+01      0.27090000E+02     -0.94240000E+01
      0.94700000E+01      0.27090000E+02     -0.10424000E+02
      0.94700000E+01      0.27090000E+02     -0.11424000E+02
      0.94700000E+01      0.27090000E+02     -0.12424000E+02
      0.94700000E+01      0.27090000E+02     -0.13424000E+02
      0.94700000E+01      0.27090000E+02     -0.14424000E+02
      0.94700000E+01      0.27090000E+02     -0.15424000E+02
      0.94700000E+01      0.27090000E+02     -0.16424000E+02
      0.94700000E+01      0.27090000E+02     -0.17424000E+02
      0.94700000E+01      0.27090000E+02     -0.18424000E+02
      0.94700000E+01      0.27090000E+02     -0.19424000E+02
      0.94700000E+01      0.27090000E+02     -0.20424000E+02
      0.94700000E+01      0.27090000E+02     -0.21424000E+02
      0.94700000E+01      0.27090000E+02     -0.22424000E+02
      0.94700000E+01      0.27090000E+02     -0.23424000E+02
      0.94700000E+01      0.27090000E+02     -0.24424000E+02
      0.94700000E+01      0.27090000E+02     -0.25424000E+02
      0.94700000E+01      0.27090000E+02     -0.26424000E+02
      0.94700000E+01      0.27090000E+02     -0.27424000E+02
      0.10980000E+02      0.14860000E+02     -0.20009430E+01
      0.10980000E+02      0.14860000E+02     -0.30009430E+01
      0.10980000E+02      0.14860000E+02     -0.40009430E+01
      0.10980000E+02      0.14860000E+02     -0.50009430E+01
      0.10980000E+02      0.14860000E+02     -0.60009430E+01
      0.10980000E+02      0.14860000E+02     -0.70009430E+01
      0.10980000E+02      0.14860000E+02     -0.80009430E+01
      0.10980000E+02      0.14860000E+02     -0.90009430E+01
      0.10980000E+02      0.14860000E+02     -0.10000943E+02
      0.10980000E+02      0.14860000E+02     -0.11000943E+02
      0.10980000E+02      0.14860000E+02     -0.12000943E+02
      0.10980000E+02      0.14860000E+02     -0.13000943E+02
      0.10980000E+02      0.14860000E+02     -0.14000943E+02
      0.10980000E+02      0.14860000E+02     -0.15000943E+02
      0.10980000E+02      0.14860000E+02     -0.16000943E+02
      0.10980000E+02      0.14860000E+02     -0.17000943E+02
      0.10980000E+02      0.14860000E+02     -0.18000943E+02
      0.10980000E+02      0.14860000E+02     -0.19000943E+02
      0.10980000E+02      0.14860000E+02     -0.20000943E+02
      0.10980000E+02      0.14860000E+02     -0.21000943E+02
      0.10980000E+02      0.14860000E+02     -0.22000943E+02
      0.10980000E+02      0.14860000E+02     -0.23000943E+02
      0.10980000E+02      0.14860000E+02     -0.24000943E+02
      0.10980000E+02      0.14860000E+02     -0.25000943E+02
      0.26850000E+02      0.17850000E+02     -0.60849799E+01
      0.26850000E+02      0.17850000E+02     -0.70849799E+01
      0.26850000E+02      0.17850000E+02     -0.80849799E+01
      0.26850000E+02      0.17850000E+02     -0.90849799E+01
      0.26850000E+02      0.17850000E+02     -0.10084980E+02
      0.26850000E+02      0.17850000E+02     -0.11084980E+02
      0.26850000E+02      0.17850000E+02     -0.12084980E+02
      0.26850000E+02      0.17850000E+02     -0.13084980E+02
      0.26850000E+02      0.17850000E+02     -0.14084980E+02
      0.26850000E+02      0.17850000E+02     -0.15084980E+02
      0.26850000E+02      0.17850000E+02     -0.16084980E+02
      0.26850000E+02      0.17850000E+02     -0.17084980E+02
      0.26850000E+02      0.17850000E+02     -0.18084980E+02
      0.26850000E+02      0.17850000E+02     -0.19084980E+02
      0.26850000E+02      0.17850000E+02     -0.20084980E+02
      0.26850000E+02      0.17850000E+02     -0.21084980E+02
      0.26850000E+02      0.17850000E+02     -0.22084980E+02
      0.26850000E+02      0.17850000E+02     -0.23084980E+02
      0.26850000E+02      0.17850000E+02     -0.24084980E+02
      0.26850000E+02      0.17850000E+02     -0.25084980E+02
      0.26850000E+02      0.17850000E+02     -0.26084980E+02
      0.26850000E+02      0.17850000E+02     -0.27084980E+02
      0.26850000E+02      0.17850000E+02     -0.28084980E+02
      0.26850000E+02      0.17850000E+02     -0.29084980E+02
      0.18640000E+02      0.00000000E+00     -0.62416000E+01
      0.18640000E+02      0.00000000E+00     -0.72416000E+01
      0.18640000E+02      0.00000000E+00     -0.82416000E+01
      0.18640000E+02      0.00000000E+00     -0.92416000E+01
      0.18640000E+02      0.00000000E+00     -0.10241600E+02
      0.18640000E+02      0.00000000E+00     -0.11241600E+02
      0.18640000E+02      0.00000000E+00     -0.12241600E+02
      0.18640000E+02      0.00000000E+00     -0.13241600E+02
      0.18640000E+02      0.00000000E+00     -0.14241600E+02
      0.18640000E+02      0.00000000E+00     -0.15241600E+02
      0.18640000E+02      0.00000000E+00     -0.16241600E+02
      0.18640000E+02      0.00000000E+00     -0.17241600E+02
      0.18640000E+02      0.00000000E+00     -0.18241600E+02
      0.18640000E+02      0.00000000E+00     -0.19241600E+02
      0.18640000E+02      0.00000000E+00     -0.20241600E+02
      0.18640000E+02      0.00000000E+00     -0.21241600E+02
      0.18640000E+02      0.00000000E+00     -0.22241600E+02
      0.18640000E+02      0.00000000E+00     -0.23241600E+02
      0.18640000E+02      0.00000000E+00     -0.24241600E+02
      0.18640000E+02      0.00000000E+00     -0.25241600E+02
      0.18640000E+02      0.00000000E+00     -0.26241600E+02
      0.18640000E+02      0.00000000E+00     -0.27241600E+02
      0.18640000E+02      0.00000000E+00     -0.28241600E+02
      0.18640000E+02      0.00000000E+00     -0.29241600E+02
      0.32220000E+02      0.26188333E+02     -0.60852000E+01
      0.32220000E+02      0.19866667E+02     -0.60852000E+01
      0.32220000E+02      0.13545000E+02     -0.60912602E+01
      0.32220000E+02      0.72233333E+01     -0.60927284E+01
      0.32220000E+02      0.90166667E+00     -0.61657004E+01
      0.25955000E+02     -0.54200000E+01     -0.62416000E+01
      0.19690000E+02     -0.54200000E+01     -0.62416000E+01
      0.13425000E+02     -0.54200000E+01     -0.59612523E+01
      0.71600000E+01     -0.54200000E+01     -0.54624868E+01
      0.89500000E+00     -0.54200000E+01     -0.49987621E+01
     -0.53700000E+01      0.90166667E+00     -0.45045000E+01
     -0.53700000E+01      0.72233333E+01     -0.45045000E+01
     -0.53700000E+01      0.13545000E+02     -0.45045000E+01
     -0.53700000E+01      0.19866667E+02     -0.44552769E+01
     -0.53700000E+01      0.26188333E+02     -0.43262934E+01
      0.89500000E+00      0.32510000E+02     -0.44240000E+01
      0.71600000E+01      0.32510000E+02     -0.44240000E+01
      0.13425000E+02      0.32510000E+02     -0.45111131E+01
      0.19690000E+02      0.32510000E+02     -0.49355308E+01
      0.25955000E+02      0.32510000E+02     -0.54217000E+01
      0.32220000E+02      0.23027500E+02     -0.39635200E+02
      0.32220000E+02      0.13545000E+02     -0.39641260E+02
      0.32220000E+02      0.40625000E+01     -0.39642728E+02
      0.22822500E+02     -0.54200000E+01     -0.39791600E+02
      0.13425000E+02     -0.54200000E+01     -0.39511252E+02
      0.40275000E+01     -0.54200000E+01     -0.39012487E+02
     -0.53700000E+01      0.40625000E+01     -0.38054500E+02
     -0.53700000E+01      0.13545000E+02     -0.38054500E+02
     -0.53700000E+01      0.23027500E+02     -0.37809753E+02
      0.40275000E+01      0.32510000E+02     -0.37974000E+02
[...]
POINT_DATA      2006
CELL_DATA     12051
SCALARS Resistivity(ohm.m) double 1
LOOKUP_TABLE default
           137.76502           130.38401            32.14854           145.24101            98.83183           236.74099            72.03636           107.33843           111.75758            64.26322            72.22000           136.91616           167.36558            41.83466            86.58486           214.73880            85.35151           284.31556            61.11472           160.76539           112.17315            97.13394            45.46780           176.05079            97.78129            78.37115            79.88569            48.34970           242.26831           195.75811            96.07060            81.78317           223.17094           101.63969           145.24190            95.60720            70.58417            65.30946           173.22019            70.87901            93.09680           102.88668           131.93519            97.43032           230.73176            91.74239           267.77279            25.95041           648.68954            88.70253            79.61089            75.86326            86.56108            94.66567           161.30964            93.18100            61.91820            51.43004            74.75056            64.59478           201.37886            64.56235            93.02126            56.00446            97.38904            68.95968            82.72449            77.03210           112.28283            68.30938            77.32040            74.81655           112.04669           145.39476           173.78177            56.04918           102.70369            78.10309           116.43202           103.49941           108.96381           205.39901            94.05238            81.54379            58.77197           174.91553           234.36378           104.70860            74.65952           213.91858           127.71672           104.70150            84.59659            80.36320           181.15173            92.35533            75.00189           113.06223           141.34600           242.05100            99.53545            19.81001           116.42074            87.71797            76.26350           122.67146            64.60697            83.17887            69.11575            90.52487           192.39686           410.69370           120.99662           124.68322           990.39392            71.05703           121.88209            48.08791           128.87197            78.94900           101.11405            72.06029           203.54561           137.59322            89.49764            66.80190           212.64260            94.83076            68.19663            85.80079            85.98577            49.57983            49.68865            50.40809           146.00078           126.21494           128.18267            67.61475           102.66054           106.62048            56.46275            62.56786            72.43912            49.16616            72.27774            98.96827           181.82857           225.15165            45.90773           176.98376            42.70592           106.36278            97.41073            62.73438           146.97607            77.92448            61.61960            71.85439           273.19436            98.89825            99.29352            40.11793            82.83888           133.63406            36.58886            65.58944            68.86378            83.83739           134.80369            45.74079            72.73868            84.00668            78.54810            65.98183            35.26994            81.75759            47.08739           161.02804           122.47009            41.74441            71.22871            41.62687            56.20973            65.76861            45.72084           101.06958           117.02948            39.56194            69.28811            69.36445            67.10161           251.60833            47.55326           129.98351            42.32544            75.07260           338.99548            79.54005           188.00171            83.16912            87.77071            56.98651           113.44778            76.49409            70.78790            73.05519            58.90967           112.94883           103.82201            83.93703           275.93701            80.75833            90.14988           249.47456            87.25527            69.83633            85.56700           138.57412           213.69324            68.08504            50.08813            37.76322            73.01956           185.85764            77.63900           135.67014            87.22042            76.70979           108.80982            57.37860            31.52269           177.81090            96.27093           127.94475           143.10136            67.54838            58.87674            55.21183           118.74675           264.69354           102.76529            85.03929            84.35484           122.28193           231.78255           251.11278           143.30078           148.38355           184.67514            82.17596            90.51842           165.04782            83.94870           135.21390            81.33657            78.18547            89.15608           133.76026            70.75186            91.22222            54.11979            78.55000            62.58804            89.27409            86.80006           205.04549            74.77878            80.04111            75.52385            77.30489            54.52603           120.07216           210.96695            90.81782            86.81386           184.16390            90.73616           296.81352            68.00459            96.88146            52.67168            69.14827           195.19068            96.24979           100.76666            55.56611           102.64593           119.17935            47.52160            57.58980           129.52658            68.78053            75.41957            59.45364            63.18820            79.67814            93.92490            80.67526            82.29883           140.75495            63.23178            64.45158           106.56822            99.77750            68.39567            92.43898            41.92537           121.27570           138.69977           192.12739            83.10167            59.42636            58.93672            74.46952            94.95661            38.89676            72.11595            69.09725           396.24275            79.87750           117.77788            73.32575           149.93396           182.68552            91.68156            88.95058            66.41179            60.92692           453.27074            42.60386            41.41300            77.55732            70.46871           145.81150           103.58368            64.94580            64.41396           609.62430           124.54081           153.93564            81.61040            95.31684           220.77638            42.30504           145.73820            56.93964            94.26120            53.60862           102.18698            62.31411           180.55323            93.22402           373.78577           110.62073           147.88600            78.81065            74.64916            67.24386            66.73012           187.04345            77.41408           105.19068            46.20310           355.79392            76.72147           165.68867            85.50458            71.28085           132.15515            78.17477            96.57006            90.11234            76.39712            70.19775           246.58850            43.11176            94.40061            58.73761           216.81730            31.88796            70.96503            68.97517            67.07960            87.01589           173.07941            81.98585            56.68442            68.34131            95.80623           116.44929           107.30359            97.35613           200.12669            47.73509            68.62564           232.13740            93.98751           152.56886           177.80105            46.58572           446.84037            87.21681            83.19950            89.28346           242.71821            63.13739            94.65309           110.11313            90.96114           248.50600            82.86073            56.82127            84.16264            51.19179            86.59897           303.88944           192.13277            68.37390           224.16946           436.91217            44.20067            87.96817           236.47699            99.80650           108.10440           219.41302            59.76840            86.90931            98.94771            84.11980            69.32789            58.17466            42.52703            73.32670            67.71231            45.69144            54.55356            53.53030            70.41340            36.63377           207.11277            97.36761            72.62727            65.84920            76.65334           160.93783           104.70526           115.86419           102.20338            97.74704           137.10435            91.50083           131.84370            36.09044            62.70387            70.60395           149.03801            39.76081            81.58111            71.25962            37.20550           179.40338            73.87185            99.75608            65.41786           175.12491            50.78347            80.65670            88.02815            67.04073            80.00517            97.70608           116.35593           147.97890            73.65145           137.07604            58.78555           243.40597            60.42925            44.78011            72.39060            79.47727            36.10772            59.19036            96.20471            69.95788           106.47317            50.01744           118.96912           199.16485           100.04606            35.92114           186.13788            70.98427            28.06290            93.88131           122.17566            62.30805           120.78577           177.13285            55.33116            40.39249            84.55012            88.32839            71.25089           108.24093            42.03252            66.97030            43.19562            57.77055           174.77357            57.43948            81.37810            65.71162            73.97468           114.05011            39.42747           107.68117            91.50953            95.33179            68.72351           185.22709            34.62232            70.79445            55.79114           112.96991           109.51212            92.36540            96.42218            45.55757            83.09213            67.11853           138.13162            87.69926           141.35632            58.79567            87.66552            94.06593            59.85923            85.00453            47.22712            60.26938            52.42535           311.68807            63.04097           226.84328            78.12446           182.77596            73.60339            79.21581            88.07329            91.61775           138.94406           131.87636            69.34260            48.25496            72.43558            71.26540           172.73727           318.67585           209.06400            91.13879           109.69898            71.54466            64.88007           103.30586            98.88734            72.59355           195.71065           228.50186            77.18426            51.64902            60.87582            79.46740          1402.48687           119.17674            57.66979           137.00678            59.44276            61.05844            78.08809           168.76658           312.38001            80.79981           132.15145            73.16219           260.66801           125.89863            69.47126            62.37201            90.40206           128.43482            49.44700            98.57996           125.31594            81.14188            72.43447            59.68189            62.24282            94.42696           145.93542            73.32879            34.12752           127.51925            82.46520            57.95522            77.93811            80.26491           169.08052           127.20370           136.86652            64.45420            49.74108            68.36600            58.99611            55.44857           139.40249            56.04560            59.15891            96.88344           169.61591            44.27850            67.64653            79.94449            67.35432           145.86648            84.01656            71.84813           322.11710            68.08253            73.90980            64.36197            84.56162            73.31433           201.80975            67.25264            53.30598            42.64861            62.80355           142.97101            50.55494           107.69633            53.60590            67.34221           421.42398            42.79083            92.05122            47.36820           121.21682            79.95347           149.11398            43.22692            55.37989            41.05929            79.18204            80.49133           101.61985            59.99411           101.19086            69.92691            54.53234            41.66788            59.90015           103.92443            55.90784          1964.85541           204.51741            63.11574           258.57848            48.81909           204.39673            61.89241            42.51315            56.56830            86.51981           102.86645            43.45047           138.63015            66.59474            77.66760           105.41216            62.36979           459.17461            71.72153            72.61902            20.33375            92.23271            57.49618            59.52558            68.66004           146.14738            67.45291            25.30247            35.50120            57.64722           117.00443            68.84439            93.55688            89.85456            74.44691           137.13645            82.23078            96.21692            61.08140            73.15933            64.56305           375.86913            86.98870            71.96308            75.00376            93.06383            70.48786           285.04396            56.22384           336.61160           191.38139           158.26635            51.45696           148.71865           163.76222            96.04035            68.22464            56.53944           101.78279           147.99540            57.43110           123.94285           132.84022            84.86250            67.01809            86.72886            84.66486            99.63308            92.87871           101.86632            43.32207           120.75907           251.74090           104.17223            84.14902            76.94283           107.60895            97.32852           207.28914           173.78938            82.23798            53.62216            60.43523            85.38313            55.12770            45.07528            56.53543           105.82264            77.55187           168.42377            66.05783            65.97185           173.47991            65.15592            67.49323           143.60635           114.84281           109.76933           117.95010            75.60252            42.99806           106.73231           184.80251            97.89339            47.38574            81.82949            54.51454            68.04607            42.63694            99.30069            35.11920            36.63303            54.29338            57.88566           202.00901            68.38904            29.81687           117.47319            51.65476            80.01770           152.56060           108.14165            34.99981            81.24663            43.18024            69.79563            70.87478            51.17852            85.79562            42.13943            62.28119            63.12754            99.43072            56.98556           130.25954           207.22236            87.07921            82.09150           343.85652            67.47931            89.03025           223.80857            89.89555           210.35666            82.56438            59.28531           105.23439            80.37856           171.86818           170.04045            60.95618           113.97602           200.58950            80.95381            37.33741           155.59791           488.72838            63.99173           110.32658            88.12997           196.20447            85.74920            84.79912           387.54230            79.62795            53.62012            52.13235           110.54422           108.83322            45.69147            65.37442            66.22936            93.58566            55.33674           108.17995           159.59206           191.70387            66.14876            47.18340            58.37458            59.82745           171.14417            63.65083            91.69205            65.83435            92.06576            65.91729            97.54874           269.29781           146.94234            82.31625           172.41264            59.93228            75.44812            82.79562            42.13632           218.92357            67.50846            60.35006            99.10121            60.80768            48.38080           142.71388            70.65054            37.72745           124.18414            45.81330            89.26903           161.67926           150.36831           117.92955            92.89064            74.58846            67.13975            47.67686            56.77825            64.82738           198.65526            51.98325           235.20149            57.71511            68.54443            90.77922            86.10940            95.19333            38.83522            54.09483            82.05565            83.43292            75.31877            77.09801           186.48324           183.39618           146.71923           167.75113            81.04982            26.59622           221.30680           154.31686           200.22338            38.74875           137.85002            54.03043            94.57586           173.27545            96.28409            53.56025            97.70499            64.07717           317.06069            64.30682            82.95434            68.19348            42.09068            59.54546           102.07930            72.59755            79.91462           186.37414            88.62358            24.21286            93.63285            77.08515            62.31409           114.56733            78.50433            66.41348            85.00200            40.65560           129.31847            58.65115            67.10258           153.24206           119.24780            34.99512            59.85552            54.46598           168.79790           110.32130            97.39675           264.63903            58.12145            82.59553            39.19458            64.83978            78.29801            95.36721           133.07438           157.79851            63.02299            54.48986            57.44003            79.74919            82.19444            66.07362            55.87770            97.31643            54.86001            62.25518           157.46528            52.25893            95.94151            71.15446            50.13893           116.50311            93.44344           164.65526            85.46500            73.98599           170.54855           179.17406            69.40917            44.61134           102.11986            71.16791            55.87995           110.83797            99.81098            67.96236           145.26051            82.68626           105.13678            56.99657            79.65747            82.88292            91.99910           100.67142            67.64946            70.75539            71.69784  