# vtk DataFile Version 3.0
Output from R3t
ASCII
DATASET UNSTRUCTURED_GRID
POINTS       2006 double
      0.32220000E+02      0.32510000E+02     -0.59627149E+01
      0.32220000E+02     -0.54200000E+01     -0.62416000E+01
     -0.53700000E+01     -0.54200000E+01     -0.47973441E+01
     -0.53700000E+01      0.32510000E+02     -0.44240000E+01
      0.32220000E+02      0.32510000E+02     -0.39512715E+02
      0.32220000E+02     -0.54200000E+01     -0.39791600E+02
     -0.53700000E+01     -0.54200000E+01     -0.38347344E+02
     -0.53700000E+01      0.32510000E+02     -0.37974000E+02
      0.21571000E+03      0.21600000E+03     -0.60852000E+01
      0.21571000E+03     -0.18891000E+03     -0.62416000E+01
     -0.18886000E+03     -0.18891000E+03     -0.45045000E+01
     -0.18886000E+03      0.21600000E+03     -0.44240000E+01
      0.00000000E+00      0.98900000E+01     -0.27504500E+02
      0.00000000E+00      0.98900000E+01     -0.26504500E+02
      0.00000000E+00      0.98900000E+01     -0.25504500E+02
      0.00000000E+00      0.98900000E+01     -0.24504500E+02
      0.00000000E+00      0.98900000E+01     -0.23504500E+02
      0.00000000E+00      0.98900000E+01     -0.22504500E+02
      0.00000000E+00      0.98900000E+01     -0.21504500E+02
      0.00000000E+00      0.98900000E+01     -0.20504500E+02
      0.00000000E+00      0.98900000E+01     -0.19504500E+02
      0.00000000E+00      0.98900000E+01     -0.18504500E+02
      0.00000000E+00      0.98900000E+01     -0.17504500E+02
      0.00000000E+00      0.98900000E+01     -0.16504500E+02
      0.00000000E+00      0.98900000E+01     -0.15504500E+02
      0.00000000E+00      0.98900000E+01     -0.14504500E+02
      0.00000000E+00      0.98900000E+01     -0.13504500E+02
      0.00000000E+00      0.98900000E+01     -0.12504500E+02
      0.00000000E+00      0.98900000E+01     -0.11504500E+02
      0.00000000E+00      0.98900000E+01     -0.10504500E+02
      0.00000000E+00      0.98900000E+01     -0.95045000E+01
      0.00000000E+00      0.98900000E+01     -0.85045000E+01
      0.00000000E+00      0.98900000E+01     -0.75045000E+01
      0.00000000E+00      0.98900000E+01     -0.65045000E+01
      0.00000000E+00      0.98900000E+01     -0.55045000E+01
      0.00000000E+00      0.98900000E+01     -0.45045000E+01
      0.94700000E+01      0.27090000E+02     -0.44240000E+01
      0.94700000E+01      0.27090000E+02     -0.54240000E+01
      0.94700000E+01      0.27090000E+02     -0.64240000E+01
      0.94700000E+01      0.27090000E+02     -0.74240000E+01
      0.94700000E+01      0.27090000E+02     -0.84240000E+01
      0.94700000E+01      0.27090000E+02     -0.94240000E+01
      0.94700000E+01      0.27090000E+02     -0.10424000E+02
      0.94700000E+01      0.27090000E+02     -0.11424000E+02
      0.94700000E+01      0.27090000E+02     -0.12424000E+02
      0.94700000E+01      0.27090000E+02     -0.13424000E+02
      0.94700000E+01      0.27090000E+02     -0.14424000E+02
      0.94700000E+01      0.27090000E+02     -0.15424000E+02
      0.94700000E+01      0.27090000E+02     -0.16424000E+02
      0.94700000E+01      0.27090000E+02     -0.17424000E+02
      0.94700000E+01      0.27090000E+02     -0.18424000E+02
      0.94700000E+01      0.27090000E+02     -0.19424000E+02
      0.94700000E+01      0.27090000E+02     -0.20424000E+02
      0.94700000E+01      0.27090000E+02     -0.21424000E+02
      0.94700000E+01      0.27090000E+02     -0.22424000E+02
      0.94700000E+01      0.27090000E+02     -0.23424000E+02
      0.94700000E+01      0.27090000E+02     -0.24424000E+02
      0.94700000E+01      0.27090000E+02     -0.25424000E+02
      0.94700000E+01      0.27090000E+02     -0.26424000E+02
      0.94700000E+01      0.27090000E+02     -0.27424000E+02
      0.10980000E+02      0.14860000E+02     -0.20009430E+01
      0.10980000E+02      0.14860000E+02     -0.30009430E+01
      0.10980000E+02      0.14860000E+02     -0.40009430E+01
      0.10980000E+02      0.14860000E+02     -0.50009430E+01
      0.10980000E+02      0.14860000E+02     -0.60009430E+01
      0.10980000E+02      0.14860000E+02     -0.70009430E+01
      0.10980000E+02      0.14860000E+02     -0.80009430E+01
      0.10980000E+02      0.14860000E+02     -0.90009430E+01
      0.10980000E+02      0.14860000E+02     -0.10000943E+02
      0.10980000E+02      0.14860000E+02     -0.11000943E+02
      0.10980000E+02      0.14860000E+02     -0.12000943E+02
      0.10980000E+02      0.14860000E+02     -0.13000943E+02
      0.10980000E+02      0.14860000E+02     -0.14000943E+02
      0.10980000E+02      0.14860000E+02     -0.15000943E+02
      0.10980000E+02      0.14860000E+02     -0.16000943E+02
      0.10980000E+02      0.14860000E+02     -0.17000943E+02
      0.10980000E+02      0.14860000E+02     -0.18000943E+02
      0.10980000E+02      0.14860000E+02     -0.19000943E+02
      0.10980000E+02      0.14860000E+02     -0.20000943E+02
      0.10980000E+02      0.14860000E+02     -0.21000943E+02
      0.10980000E+02      0.14860000E+02     -0.22000943E+02
      0.10980000E+02      0.14860000E+02     -0.23000943E+02
      0.10980000E+02      0.14860000E+02     -0.24000943E+02
      0.10980000E+02      0.14860000E+02     -0.25000943E+02
      0.26850000E+02      0.17850000E+02     -0.60849799E+01
      0.26850000E+02      0.17850000E+02     -0.70849799E+01
      0.26850000E+02      0.17850000E+02     -0.80849799E+01
      0.26850000E+02      0.17850000E+02     -0.90849799E+01
      0.26850000E+02      0.17850000E+02     -0.10084980E+02
      0.26850000E+02      0.17850000E+02     -0.11084980E+02
      0.26850000E+02      0.17850000E+02     -0.12084980E+02
      0.26850000E+02      0.17850000E+02     -0.13084980E+02
      0.26850000E+02      0.17850000E+02     -0.14084980E+02
      0.26850000E+02      0.17850000E+02     -0.15084980E+02
      0.26850000E+02      0.17850000E+02     -0.16084980E+02
      0.26850000E+02      0.17850000E+02     -0.17084980E+02
      0.26850000E+02      0.17850000E+02     -0.18084980E+02
      0.26850000E+02      0.17850000E+02     -0.19084980E+02
      0.26850000E+02      0.17850000E+02     -0.20084980E+02
      0.26850000E+02      0.17850000E+02     -0.21084980E+02
      0.26850000E+02      0.17850000E+02     -0.22084980E+02
      0.26850000E+02      0.17850000E+02     -0.23084980E+02
      0.26850000E+02      0.17850000E+02     -0.24084980E+02
      0.26850000E+02      0.17850000E+02     -0.25084980E+02
      0.26850000E+02      0.17850000E+02     -0.26084980E+02
      0.26850000E+02      0.17850000E+02     -0.27084980E+02
      0.26850000E+02      0.17850000E+02     -0.28084980E+02
      0.26850000E+02      0.17850000E+02     -0.29084980E+02
      0.18640000E+02      0.00000000E+00     -0.62416000E+01
      0.18640000E+02      0.00000000E+00     -0.72416000E+01
      0.18640000E+02      0.00000000E+00     -0.82416000E+01
      0.18640000E+02      0.00000000E+00     -0.92416000E+01
      0.18640000E+02      0.00000000E+00     -0.10241600E+02
      0.18640000E+02      0.00000000E+00     -0.11241600E+02
      0.18640000E+02      0.00000000E+00     -0.12241600E+02
      0.18640000E+02      0.00000000E+00     -0.13241600E+02
      0.18640000E+02      0.00000000E+00     -0.14241600E+02
      0.18640000E+02      0.00000000E+00     -0.15241600E+02
      0.18640000E+02      0.00000000E+00     -0.16241600E+02
      0.18640000E+02      0.00000000E+00     -0.17241600E+02
      0.18640000E+02      0.00000000E+00     -0.18241600E+02
      0.18640000E+02      0.00000000E+00     -0.19241600E+02
      0.18640000E+02      0.00000000E+00     -0.20241600E+02
      0.18640000E+02      0.00000000E+00     -0.21241600E+02
      0.18640000E+02      0.00000000E+00     -0.22241600E+02
      0.18640000E+02      0.00000000E+00     -0.23241600E+02
      0.18640000E+02      0.00000000E+00     -0.24241600E+02
      0.18640000E+02      0.00000000E+00     -0.25241600E+02
      0.18640000E+02      0.00000000E+00     -0.26241600E+02
      0.18640000E+02      0.00000000E+00     -0.27241600E+02
      0.18640000E+02      0.00000000E+00     -0.28241600E+02
      0.18640000E+02      0.00000000E+00     -0.29241600E+02
      0.32220000E+02      0.26188333E+02     -0.60852000E+01
      0.32220000E+02      0.19866667E+02     -0.60852000E+01
      0.32220000E+02      0.13545000E+02     -0.60912602E+01
      0.32220000E+02      0.72233333E+01     -0.60927284E+01
      0.32220000E+02      0.90166667E+00     -0.61657004E+01
      0.25955000E+02     -0.54200000E+01     -0.62416000E+01
      0.19690000E+02     -0.54200000E+01     -0.62416000E+01
      0.13425000E+02     -0.54200000E+01     -0.59612523E+01
      0.71600000E+01     -0.54200000E+01     -0.54624868E+01
      0.89500000E+00     -0.54200000E+01     -0.49987621E+01
     -0.53700000E+01      0.90166667E+00     -0.45045000E+01
     -0.53700000E+01      0.72233333E+01     -0.45045000E+01
     -0.53700000E+01      0.13545000E+02     -0.45045000E+01
     -0.53700000E+01      0.19866667E+02     -0.44552769E+01
     -0.53700000E+01      0.26188333E+02     -0.43262934E+01
      0.89500000E+00      0.32510000E+02     -0.44240000E+01
      0.71600000E+01      0.32510000E+02     -0.44240000E+01
      0.13425000E+02      0.32510000E+02     -0.45111131E+01
      0.19690000E+02      0.32510000E+02     -0.49355308E+01
      0.25955000E+02      0.32510000E+02     -0.54217000E+01
      0.32220000E+02      0.23027500E+02     -0.39635200E+02
      0.32220000E+02      0.13545000E+02     -0.39641260E+02
      0.32220000E+02      0.40625000E+01     -0.39642728E+02
      0.22822500E+02     -0.54200000E+01     -0.39791600E+02
      0.13425000E+02     -0.54200000E+01     -0.39511252E+02
      0.40275000E+01     -0.54200000E+01     -0.39012487E+02
     -0.53700000E+01      0.40625000E+01     -0.38054500E+02
     -0.53700000E+01      0.13545000E+02     -0.38054500E+02
     -0.53700000E+01      0.23027500E+02     -0.37809753E+02
      0.40275000E+01      0.32510000E+02     -0.37974000E+02
[...]
POINT_DATA      2006
CELL_DATA     12051
SCALARS Resistivity(ohm.m) double 1
LOOKUP_TABLE default
           143.71542           137.42991            29.56115           152.63132            94.34451           223.27775            76.81515           108.15084           102.32375            61.60235            76.87980           123.08732           170.18518            39.84601            89.54764           224.39749            86.42365           291.26518            63.69248           190.22354           107.95258           102.19549            43.36534           164.71863            96.86361            82.63026            84.03140            47.40228           254.79836           191.62258            76.94753            79.70190           218.58910           106.77600           152.55558            95.58739            75.26462            67.42975           168.20114            75.03538            96.41751           100.04883           127.79843           111.04153           253.69742           103.87391           254.16371            23.23246           667.83224            86.82839            79.04362            69.99489            89.27830            98.33331           154.77088           100.06235            58.87080            53.30022            71.83371            61.90119           198.99434            62.32365            91.54344            53.73703            97.91159            66.03456            89.55386            65.46222           110.23589            71.10692            73.97101            72.74349           117.77828           149.51368           152.36993            49.54899            94.09005            75.75654           123.21968           103.61513           120.18227           193.42544            91.66653            79.03502            57.61534           179.56121           230.16152           107.40241            71.33974           210.86818           120.36459            94.24598            85.22022            79.89492           208.87941           118.24710            72.22394           115.79712           162.85673           248.35473            85.79163            17.65706            98.46556            76.66824            81.28091           130.30144            61.93256            90.20527            65.69563            95.72197           170.98009           399.82344           125.54737           132.01994           985.17254            69.99221           113.81161            46.84178           123.22856            75.94387            98.98259            76.04187           186.61250           135.54499            92.83605            69.63525           259.00558            93.62936            70.88212            86.88312            83.81493            48.58177            48.38739            49.03510           133.23370           165.47878           132.62084            65.77189           104.22218           108.52528            56.37787            61.78801            73.08380            48.17880            67.72820            92.76667           190.31503           262.12353            47.07993           174.37980            40.28219           106.78300            94.06153            62.67707           142.21728            76.41222            64.88267            76.80001           278.54601            99.52501           104.22658            37.89738            87.01327           136.07104            34.31299            67.89941            66.25126            84.99312           137.06705            43.08521            72.21461            80.98741            81.04986            67.79908            33.15015            79.37931            47.49344           176.75873           124.47184            39.69072            74.90485            39.28945            58.28565            68.74250            42.57923            91.95218           126.86274            37.67067            66.90532            63.13713            81.12711           235.01375            46.18142           135.05608            40.49586            72.34708           332.82236            76.65124           201.82207            87.67480            89.70105            56.72009           127.57860            75.24743            70.02575            77.74470            56.93519           107.72037           101.85829            72.41131           275.16531            80.03167            82.60033           280.08917            88.75802            69.12280            84.38140           134.85771           229.27044            66.74158            46.65722            35.58833            77.56649           191.27429            75.36238           175.31024            91.21860            81.32593            94.15047            54.03926            28.69196           181.63276            95.97888           138.96188           131.17963            67.71846            59.37077            52.68246           120.82104           256.23949           113.87638            90.08820            84.53502           124.03664           255.95028           258.38958           142.11297           131.04988           183.47331            84.43043            85.98583           161.20830            81.93018           139.46742            81.16363            73.72148            81.49408           130.07068            67.98186            87.71421            51.07362            60.09293            63.20087            94.38522            84.12885           224.35052            71.79231            74.03699            74.99096            81.12180            50.42347           119.83450           217.05104            89.45637            83.82377           180.94837            95.38049           334.48185            71.30786            93.33186            51.56698            70.35699           197.82663            91.28884            98.59834            54.89174            94.60302           121.50867            45.09010            58.12166           133.77367            70.70549            76.82126            54.05986            65.18613            83.79549            88.21316            85.00627            86.50090           139.49865            63.40662            67.71975           103.96830           101.27217            65.88023            89.27334            40.03724           116.11010           154.22200           191.99960            84.75867            53.78055            59.48003            71.78950            91.70203            36.35730            70.37032            67.36543           381.35242            77.24225           112.24620            68.71263           157.89779           185.84097            95.53913            80.90354            69.44448            59.10641           425.37331            40.44099            39.44239            81.80802            72.72285           136.33247            88.57722            62.63787            54.28580           616.68885           130.35424           150.45774            68.65470            91.74126           222.98377            40.31672           141.86126            56.40112            97.83622            55.36169           104.83697            62.71738           192.70861            89.50233           355.63433           116.31931           150.16249            82.73843            71.82918            66.72573            63.36004           189.42907            71.73954           110.92777            45.15369           336.34127            81.23254           166.11953            86.13927            62.44781           128.60519            74.38077            98.70217            91.87150            74.28528            68.10840           241.48789            40.77769           103.99323            58.81324           224.91867            28.43164            70.10805            66.20293            65.45820            83.72425           173.35925            84.79880            51.69659            71.76269            89.99527            93.76221           117.55252            93.03173           199.85832            46.91074            64.75447           252.74047            94.10804           148.55880           177.47432            46.11144           416.16190            85.83088            87.45444            92.55452           245.82644            61.93229            91.31855           115.09435            92.87513           268.38158            76.41732            58.36420            81.79625            50.43539            89.93370           301.45548           185.36698            69.48154           222.38197           452.73756            42.49893            88.89707           209.26679            97.11018            92.33307           241.85889            57.62616            84.44999            91.65269            79.74586            73.10516            60.67290            40.19878            69.67402            65.71453            46.89774            50.35759            53.49793            67.14054            34.71558           205.33535            90.65437            69.73494            62.46915            73.99020           155.82705           107.45514           121.16784           102.25868           102.27889           112.67716            89.66118           132.68612            34.16251            65.28624            75.32669           153.41983            37.40911            75.31752            67.19666            35.53448           177.65097            72.71415            91.94692            66.65952           173.59808            51.14543            80.69818            75.12312            59.61175            79.66395           100.01078           115.36736           170.57003            66.52321           174.85290            54.29616           266.89431            62.75997            42.72140            63.66742            77.80234            34.36525            59.76737            99.45878            73.86602           110.47151            46.13219           114.59532           203.62302            97.40481            33.93098           174.51787            69.04424            25.66017            94.17712           107.90168            59.86859           124.42594           186.14616            54.19176            37.82355            89.07305            88.68288            67.42275           114.93676            34.61885            68.37877            40.76280            55.36320           169.21474            54.18993            80.59815            66.09144            72.71897           109.66881            37.46198            98.16943            89.30117           103.98577            66.40129           179.49970            32.46389            70.85469            52.94034           114.97588           106.02391            88.52177            93.82090            44.20500            79.64734            64.37740           146.15555            87.34575           139.15735            55.98007            90.63246           106.52235            57.66537            89.46504            47.55085            57.00713            49.67024           295.72970            65.16235           244.58288            74.00824           190.98187            78.19795            89.92814            89.59881            95.43992           148.35218           128.84210            65.87259            49.60165            71.11920            74.16566           175.65084           294.78946           240.85248            87.28781           108.36649            76.56232            62.09738           109.27102           100.96856            76.21675           180.83902           226.71047            61.48319            49.64999            59.80364            76.06984          1418.74456            99.48539            58.54148           143.65545            59.89846            60.43423            75.56854           184.17768           305.87484            79.74766           114.54823            70.39547           255.09602           132.54057            68.50235            60.10343            94.79783           134.09651            48.76543            97.31746           137.20725            75.43360            69.52058            60.59867            61.51595            92.43433           152.94126            69.93525            30.30024           132.54037            78.77552            59.59599            82.52606            76.95746           172.04081           133.25307           140.24817            65.10694            48.57129            69.17286            58.50991            53.59487           130.73344            56.13995            54.67001            94.42808           169.36013            42.42943            70.29572            75.36820            64.39197           152.54647            80.43719            75.15675           348.74469            65.37665            71.40300            66.82840            78.92923            77.72376           189.69310            70.34314            52.67151            40.45663            59.62564           141.55654            50.38888           109.49003            50.64441            70.74660           406.61901            38.60886            85.84164            45.64808           124.49388            83.34659           145.62174            40.66715            51.10780            39.22989            81.12416            76.98602           102.21597            60.52178           100.93788            70.27612            56.24210            40.23000            56.47713           102.59385            59.42852          1965.72478           202.36682            65.26586           232.92781            48.06014           212.66293            59.70109            40.21082            59.24083            87.92749           115.24940            40.91268           136.91259            63.69385            82.05801           108.07917            59.62689           496.99724            70.10203            70.68754            17.75453            89.50813            58.27645            54.60206            65.81766           169.32592            64.25899            24.66257            33.33114            57.92512           122.84632            59.63006            95.77379            91.29883            78.00739           126.15335            78.59345            97.97899            59.23201            71.82374            61.86762           393.94638            92.14412            74.02890            73.19060            93.15088            70.96886           251.76552            54.92462           310.21204           197.52130           172.11047            49.09813           166.47129           165.08224            89.17541            68.52032            56.88136            99.95448           148.30831            60.26260           136.76287           136.32351            87.55375            64.74289            80.81521            82.12274           104.86809            96.00729            99.83930            41.09393           124.83204           268.99518            97.98181            83.05659            92.59522           111.59679            96.65151           212.74945           168.42178            90.01226            46.53763            60.99721            86.42819            52.64338            45.54940            57.33722           108.37559            74.74038           172.07388            60.65023            63.39722           169.19998            56.31535            63.99839           116.67667            92.09271           108.00319           118.70530            79.64692            40.52600           105.38072           175.50191            95.09034            44.84195            86.30349            48.37780            65.33414            40.47321            97.56439            32.92910            34.72108            54.25842            55.35189           197.03037            66.14046            27.90479           115.00195            50.57274            76.58501           148.09773           113.51606            33.05126            80.48899            41.42958            74.03627            68.65637            45.32251            89.90707            39.99402            64.32711            56.69469            96.12929            56.58543           139.72485           195.05577            84.39142            78.84434           332.22095            71.38656            89.82949           217.41486            92.20748           226.71049            76.24779            56.42306           103.09297            80.68967           176.65917           165.63489            60.42661           116.72122           216.89644            79.06145            34.96636           152.11947           530.58385            62.97181           121.87594            95.40028           175.83510            85.37882            89.08271           366.20402            82.12585            53.42196            48.34876           108.88827           107.61142            42.95394            67.39959            63.29149            88.40550            55.75223           105.86054           160.67397           187.81265            63.24867            44.15918            60.81787            59.81435           167.11764            61.13778            93.51197            64.45249            93.73838            66.03694           107.77488           289.92670           133.23857            85.66863           174.57532            57.18457            71.97127            82.54690            39.31650           216.65718            70.33714            55.56488           109.37110            58.16505            47.24453           131.46759            68.99424            35.60608           127.68261            43.65380            93.29861           165.58116           148.56597           123.97348            82.74102            74.09413            60.19775            45.54190            56.15770            60.95481           195.77599            50.91266           244.97266            59.03122            61.82618            83.66783            86.91091            98.29496            33.46042            47.09733            79.46647            88.21274            74.48378            70.82379           184.32154           191.44885           144.64779           164.83703            81.31879            24.41408           212.44563           203.03827           184.89366            37.15268           138.11509            54.03600            98.31932           173.68072            98.79100            50.82665            93.75729            63.37892           312.15065            59.26287            84.71273            65.03092            39.65965            56.95745           100.60758            77.63543            69.00215           194.62526            82.09037            21.13666            91.44892            71.76783            63.81264           107.47648            70.41337            63.44813            83.77796            38.53805           143.49185            56.19674            69.75348           147.81599           115.12740            34.37530            58.94383            54.18712           163.46370           115.99710            87.58983           264.64440            53.10608            73.66444            37.64410            64.16396            73.63509            95.59674           150.14678           160.88736            63.91978            54.99237            58.43393            77.48848            82.57431            60.15763            54.89200            94.72870            55.42001            63.32280           167.62325            49.24587            95.10031            75.44950            47.60941           118.12736            85.92167           188.09571            87.71230            78.93737           191.18863           189.89414            66.76936            42.08121           100.43560            65.73778            46.33646           109.13948            96.77781            65.22701           156.28266            87.01927           109.87026            57.38920            70.38150            78.50417            94.43051           102.58116            65.58287            67.32419            71.01223  