# vtk DataFile Version 3.0
Output from R3t
ASCII
DATASET UNSTRUCTURED_GRID
POINTS       6291 double
      0.00000000E+00      0.98900000E+01     -0.25000000E+02
      0.00000000E+00      0.98900000E+01     -0.24000000E+02
      0.00000000E+00      0.98900000E+01     -0.23000000E+02
      0.00000000E+00      0.98900000E+01     -0.22000000E+02
      0.00000000E+00      0.98900000E+01     -0.21000000E+02
      0.00000000E+00      0.98900000E+01     -0.20000000E+02
      0.00000000E+00      0.98900000E+01     -0.19000000E+02
      0.00000000E+00      0.98900000E+01     -0.18000000E+02
      0.00000000E+00      0.98900000E+01     -0.17000000E+02
      0.00000000E+00      0.98900000E+01     -0.16000000E+02
      0.00000000E+00      0.98900000E+01     -0.15000000E+02
      0.00000000E+00      0.98900000E+01     -0.14000000E+02
      0.00000000E+00      0.98900000E+01     -0.13000000E+02
      0.00000000E+00      0.98900000E+01     -0.12000000E+02
      0.00000000E+00      0.98900000E+01     -0.11000000E+02
      0.00000000E+00      0.98900000E+01     -0.10000000E+02
      0.00000000E+00      0.98900000E+01     -0.90000000E+01
      0.00000000E+00      0.98900000E+01     -0.80000000E+01
      0.00000000E+00      0.98900000E+01     -0.70000000E+01
      0.00000000E+00      0.98900000E+01     -0.60000000E+01
      0.00000000E+00      0.98900000E+01     -0.50000000E+01
      0.00000000E+00      0.98900000E+01     -0.40000000E+01
      0.00000000E+00      0.98900000E+01     -0.30000000E+01
      0.00000000E+00      0.98900000E+01     -0.20000000E+01
      0.94700000E+01      0.27090000E+02     -0.20000000E+01
      0.94700000E+01      0.27090000E+02     -0.30000000E+01
      0.94700000E+01      0.27090000E+02     -0.40000000E+01
      0.94700000E+01      0.27090000E+02     -0.50000000E+01
      0.94700000E+01      0.27090000E+02     -0.60000000E+01
      0.94700000E+01      0.27090000E+02     -0.70000000E+01
      0.94700000E+01      0.27090000E+02     -0.80000000E+01
      0.94700000E+01      0.27090000E+02     -0.90000000E+01
      0.94700000E+01      0.27090000E+02     -0.10000000E+02
      0.94700000E+01      0.27090000E+02     -0.11000000E+02
      0.94700000E+01      0.27090000E+02     -0.12000000E+02
      0.94700000E+01      0.27090000E+02     -0.13000000E+02
      0.94700000E+01      0.27090000E+02     -0.14000000E+02
      0.94700000E+01      0.27090000E+02     -0.15000000E+02
      0.94700000E+01      0.27090000E+02     -0.16000000E+02
      0.94700000E+01      0.27090000E+02     -0.17000000E+02
      0.94700000E+01      0.27090000E+02     -0.18000000E+02
      0.94700000E+01      0.27090000E+02     -0.19000000E+02
      0.94700000E+01      0.27090000E+02     -0.20000000E+02
      0.94700000E+01      0.27090000E+02     -0.21000000E+02
      0.94700000E+01      0.27090000E+02     -0.22000000E+02
      0.94700000E+01      0.27090000E+02     -0.23000000E+02
      0.94700000E+01      0.27090000E+02     -0.24000000E+02
      0.94700000E+01      0.27090000E+02     -0.25000000E+02
      0.10980000E+02      0.14860000E+02     -0.20000000E+01
      0.10980000E+02      0.14860000E+02     -0.30000000E+01
      0.10980000E+02      0.14860000E+02     -0.40000000E+01
      0.10980000E+02      0.14860000E+02     -0.50000000E+01
      0.10980000E+02      0.14860000E+02     -0.60000000E+01
      0.10980000E+02      0.14860000E+02     -0.70000000E+01
      0.10980000E+02      0.14860000E+02     -0.80000000E+01
      0.10980000E+02      0.14860000E+02     -0.90000000E+01
      0.10980000E+02      0.14860000E+02     -0.10000000E+02
      0.10980000E+02      0.14860000E+02     -0.11000000E+02
      0.10980000E+02      0.14860000E+02     -0.12000000E+02
      0.10980000E+02      0.14860000E+02     -0.13000000E+02
      0.10980000E+02      0.14860000E+02     -0.14000000E+02
      0.10980000E+02      0.14860000E+02     -0.15000000E+02
      0.10980000E+02      0.14860000E+02     -0.16000000E+02
      0.10980000E+02      0.14860000E+02     -0.17000000E+02
      0.10980000E+02      0.14860000E+02     -0.18000000E+02
      0.10980000E+02      0.14860000E+02     -0.19000000E+02
      0.10980000E+02      0.14860000E+02     -0.20000000E+02
      0.10980000E+02      0.14860000E+02     -0.21000000E+02
      0.10980000E+02      0.14860000E+02     -0.22000000E+02
      0.10980000E+02      0.14860000E+02     -0.23000000E+02
      0.10980000E+02      0.14860000E+02     -0.24000000E+02
      0.10980000E+02      0.14860000E+02     -0.25000000E+02
      0.26850000E+02      0.17850000E+02     -0.20000000E+01
      0.26850000E+02      0.17850000E+02     -0.30000000E+01
      0.26850000E+02      0.17850000E+02     -0.40000000E+01
      0.26850000E+02      0.17850000E+02     -0.50000000E+01
      0.26850000E+02      0.17850000E+02     -0.60000000E+01
      0.26850000E+02      0.17850000E+02     -0.70000000E+01
      0.26850000E+02      0.17850000E+02     -0.80000000E+01
      0.26850000E+02      0.17850000E+02     -0.90000000E+01
      0.26850000E+02      0.17850000E+02     -0.10000000E+02
      0.26850000E+02      0.17850000E+02     -0.11000000E+02
      0.26850000E+02      0.17850000E+02     -0.12000000E+02
      0.26850000E+02      0.17850000E+02     -0.13000000E+02
      0.26850000E+02      0.17850000E+02     -0.14000000E+02
      0.26850000E+02      0.17850000E+02     -0.15000000E+02
      0.26850000E+02      0.17850000E+02     -0.16000000E+02
      0.26850000E+02      0.17850000E+02     -0.17000000E+02
      0.26850000E+02      0.17850000E+02     -0.18000000E+02
      0.26850000E+02      0.17850000E+02     -0.19000000E+02
      0.26850000E+02      0.17850000E+02     -0.20000000E+02
      0.26850000E+02      0.17850000E+02     -0.21000000E+02
      0.26850000E+02      0.17850000E+02     -0.22000000E+02
      0.26850000E+02      0.17850000E+02     -0.23000000E+02
      0.26850000E+02      0.17850000E+02     -0.24000000E+02
      0.26850000E+02      0.17850000E+02     -0.25000000E+02
      0.18640000E+02      0.00000000E+00     -0.20000000E+01
      0.18640000E+02      0.00000000E+00     -0.30000000E+01
      0.18640000E+02      0.00000000E+00     -0.40000000E+01
      0.18640000E+02      0.00000000E+00     -0.50000000E+01
      0.18640000E+02      0.00000000E+00     -0.60000000E+01
      0.18640000E+02      0.00000000E+00     -0.70000000E+01
      0.18640000E+02      0.00000000E+00     -0.80000000E+01
      0.18640000E+02      0.00000000E+00     -0.90000000E+01
      0.18640000E+02      0.00000000E+00     -0.10000000E+02
      0.18640000E+02      0.00000000E+00     -0.11000000E+02
      0.18640000E+02      0.00000000E+00     -0.12000000E+02
      0.18640000E+02      0.00000000E+00     -0.13000000E+02
      0.18640000E+02      0.00000000E+00     -0.14000000E+02
      0.18640000E+02      0.00000000E+00     -0.15000000E+02
      0.18640000E+02      0.00000000E+00     -0.16000000E+02
      0.18640000E+02      0.00000000E+00     -0.17000000E+02
      0.18640000E+02      0.00000000E+00     -0.18000000E+02
      0.18640000E+02      0.00000000E+00     -0.19000000E+02
      0.18640000E+02      0.00000000E+00     -0.20000000E+02
      0.18640000E+02      0.00000000E+00     -0.21000000E+02
      0.18640000E+02      0.00000000E+00     -0.22000000E+02
      0.18640000E+02      0.00000000E+00     -0.23000000E+02
      0.18640000E+02      0.00000000E+00     -0.24000000E+02
      0.18640000E+02      0.00000000E+00     -0.25000000E+02
     -0.51140522E+00      0.71588023E+01     -0.20000000E+01
     -0.49593660E+00      0.60927425E+01     -0.20000000E+01
      0.41797281E+00      0.66361707E+01     -0.20000000E+01
      0.43302881E+00      0.55428034E+01     -0.20000000E+01
      0.13561809E+01      0.61090631E+01     -0.20000000E+01
      0.13734931E+01      0.50157223E+01     -0.20000000E+01
      0.22946745E+01      0.55837861E+01     -0.20000000E+01
      0.23105556E+01      0.45126988E+01     -0.20000000E+01
      0.32265139E+01      0.50650006E+01     -0.20000000E+01
      0.32146856E+01      0.61321849E+01     -0.20000000E+01
      0.41392408E+01      0.56152676E+01     -0.20000000E+01
      0.41270756E+01      0.66752199E+01     -0.20000000E+01
      0.50462507E+01      0.61598431E+01     -0.20000000E+01
      0.50297219E+01      0.72122270E+01     -0.20000000E+01
      0.59521252E+01      0.67000404E+01     -0.20000000E+01
      0.59630340E+01      0.56527579E+01     -0.20000000E+01
      0.68728908E+01      0.61848904E+01     -0.20000000E+01
      0.68806275E+01      0.51415218E+01     -0.20000000E+01
      0.77829501E+01      0.56725643E+01     -0.20000000E+01
      0.77944939E+01      0.46334428E+01     -0.20000000E+01
      0.86893990E+01      0.51697938E+01     -0.20000000E+01
      0.86832209E+01      0.62039514E+01     -0.20000000E+01
      0.95803132E+01      0.57034205E+01     -0.20000000E+01
      0.96043383E+01      0.46763211E+01     -0.20000000E+01
      0.10484532E+02      0.52092251E+01     -0.20000000E+01
      0.10462370E+02      0.62354564E+01     -0.20000000E+01
      0.11361191E+02      0.57398163E+01     -0.20000000E+01
      0.11385157E+02      0.47172493E+01     -0.20000000E+01
      0.12269868E+02      0.52491723E+01     -0.20000000E+01
      0.12234766E+02      0.62715667E+01     -0.20000000E+01
      0.13145121E+02      0.57852105E+01     -0.20000000E+01
      0.13105170E+02      0.67981838E+01     -0.20000000E+01
      0.13996842E+02      0.63084968E+01     -0.20000000E+01
      0.13974063E+02      0.73252275E+01     -0.20000000E+01
      0.14866600E+02      0.68365691E+01     -0.20000000E+01
      0.14844683E+02      0.78553010E+01     -0.20000000E+01
      0.15738493E+02      0.73655798E+01     -0.20000000E+01
      0.15717492E+02      0.83861582E+01     -0.20000000E+01
      0.16611680E+02      0.78942206E+01     -0.20000000E+01
      0.16592536E+02      0.89174787E+01     -0.20000000E+01
      0.17469384E+02      0.84568878E+01     -0.20000000E+01
      0.17466436E+02      0.94547743E+01     -0.20000000E+01
[...]
POINT_DATA      6291
CELL_DATA     33106
SCALARS Resistivity(ohm.m) double 1
LOOKUP_TABLE default
           107.81719           246.24831           130.97428            32.83923           257.77666           344.09809           220.93500            15.24435            52.69475           348.36194           109.97048            49.44989            12.41110             8.29508           122.16582            55.36243           116.61209           157.60883           257.34400            55.27056           306.39949            20.11039           294.43480            87.00737           489.63558            43.31591            24.07065           129.05495            43.85504            12.44255            63.19848           102.50678            78.51008            47.14144            56.68258           131.26243            65.15490            66.31258            84.65624            26.95092           253.90537            52.75208            64.00959           101.96144            98.72127           159.72273           246.54440            26.92243            67.43397           112.05156            12.47335           138.14746            92.06363           110.03195           213.13469            17.60086           269.21413           223.68435           217.00603           663.65665           109.08520           193.35928            41.86968            82.56117             4.28698            51.89157            77.51631            61.14312            85.56458            95.68713           440.78171           138.23243            41.61627           101.40512            25.60100            26.52507           199.01445           243.33579            27.29073            30.06469            49.05781            56.80582            16.64112            54.99997           310.30687           100.97387           208.01242           148.67656           196.36908           270.62653            32.32832            86.73521           147.18245           105.13707           100.12798            76.97613           281.54399            50.47546            65.02093            75.40186            61.39217            60.82044           232.15547            56.10518            22.59679           476.49525            64.14950            77.77497           181.43654           620.05987            70.34458            69.42718            81.49883            22.83368           185.54216            72.39315            78.13916            92.19008            27.90540            97.55692            18.34215            21.68153            42.41337            79.78819           105.37718           145.50923           114.90699            41.28499            81.92241            49.17565             8.09208           132.33631            81.26405           158.22161           177.96903            77.04158           154.00454            55.66042           120.45737           108.77137            87.43263            23.94359           174.20704            77.49030           191.86908           177.92522           262.85475            57.58097            97.90793            20.03535            67.89644           114.47138            63.24928            98.89849            67.48672            52.64545            72.06378           407.46354           135.52670            21.35163           206.19671           165.38327           207.60114           374.33046           325.40242           197.39560           220.37274           205.01896           165.08934           150.49382            48.01196           164.63594           149.19257           128.77407            46.11648           231.51990            37.94485            87.43824           158.52671            70.85451            58.95638            38.93148           153.78441           159.53758           113.71576            30.46117           172.96270           147.70362            17.60247            58.35495            54.03748            69.62596           191.57801            64.17902            46.23113            29.45875           274.77882            22.95320           204.80691            46.14162           114.64426            39.13182            21.36993            23.53225           172.75771           199.72470            22.24862            82.66028            49.63969            52.45901           335.58447            45.53942           136.22277           167.91582           117.64124           363.99963            83.37610            77.87081            63.90292            80.75797           123.26531           139.95020           109.67728            59.12541           263.20496            46.81985            26.02664           273.59117            27.76987            54.44532            42.89520            61.05821           129.51841            22.65627           105.57535            97.02275            66.43575            62.86900            75.43322            12.57268            79.63084            98.94617            66.39408            36.71363           123.44596            80.10893            57.36007           230.25305            54.60546           305.90664           150.37249            26.97313           121.20068            74.54157            95.90745           138.99826            99.87356            21.61874            70.95459            61.05415           120.69438            29.39041           116.54034           102.80097            57.64904            49.65800           269.07865            82.84273           128.37099            91.54162           111.62747            67.34830            20.38274            32.55534           479.10419           154.34500            15.14792            70.12139            42.36123            42.38446           497.50818            26.43164            69.04617           402.96800           208.78444            49.17951            66.46107            68.89681           250.59605           202.14479           108.75160           250.72418           144.29332           233.08802            90.21612            98.52132            18.69587            42.94426           493.69169            17.42605            68.42832            18.21814            16.21492            72.12801           247.73195            98.73488            63.87006            74.74714            42.64126           120.94204           504.69731           104.32890           113.85816            70.79157           102.66309           369.33360          2594.01159           117.03820            60.15027           352.52889           300.03898            21.84164           163.10279           170.85811           221.24009           121.49396            32.76506           197.30583           116.26448            66.70182           102.75316          3017.58338            24.80188           135.57628           377.36617           216.45566           291.88291            67.67716            39.10359           147.84467            72.56300            86.52068           100.47527           160.72876           364.56984           139.99292           114.27653            49.33123            92.83799            47.73891            81.84267           131.25396           316.44860            34.66712            22.21998            40.75423            35.77479            31.55969           155.55206            71.60336            56.19960            47.26973            25.94689            46.32478           229.00726           403.68907           132.01762            94.96202            75.44927            42.81522            94.55917           137.82369            65.24333           106.16338           104.97657            44.01320            73.53382            86.14795            59.24049            63.49145            83.42408            36.65517            57.04022            17.88358            21.88921            59.03618            59.55487            49.17587           160.94477            72.47500            14.28982           129.98012            84.34621            18.14350           247.12096           102.80334            39.85182           121.75609            77.14243            60.72724           126.13647            90.61300            62.93948           198.11815           259.07577           142.11000            49.93508           219.17323            21.07615           402.10603            39.75205            60.27801           180.23133            96.23370           214.23398            62.67565           145.20484            34.69753            66.66284           274.99696           112.26923            28.41452            40.89657           350.21423           103.75213            77.37471           227.28086           380.04945            25.93797           143.32491           122.16330            46.06212            36.16971           143.44901            68.98956           111.81143            28.12854           171.56179           133.87250           135.35101           174.40346           121.34459            92.54042            50.59848            33.37045            80.28463            80.80959           103.07582           121.17533            52.57938             5.46307            27.42585           474.17447           119.54058            66.27141           248.63957           169.91494            88.65586           123.02884           224.45329           297.51768            28.59693           146.29060            61.72520           111.89924            82.12006            32.32354            86.17087            52.56994            71.47450            96.75851            72.81620           142.18211            55.68298           121.40026           277.60814            61.03302            52.18230            57.33992            40.32364           120.99310            61.31191           135.34953           142.13996            90.33618           112.17797           264.27535           248.95793            54.67092           109.00360            72.96579           113.85615           154.04166            31.31592           158.55029            73.89610            12.47364            20.63167           119.54013            32.00084           215.13025            77.41170            48.51174           152.98592            96.63829           101.23617            18.57476           409.36693           119.56691            22.65938            73.94710            89.93821            48.15642           163.92027            60.84057            74.72853            93.72539            19.08228            49.87171           318.50264           129.52887            76.30058            96.82949           162.79933            37.20457            74.79816            68.30163            92.58408           142.02014            40.06950            49.37526           207.02478           271.27791           153.86070           133.09598           164.05541           156.42735           160.97897            41.78316           890.49918           188.75985           210.09926            20.39271           143.03647            81.15891           103.19453           332.97772            30.15897            32.81412           308.69720           207.98948           314.93648           137.18139           705.66145           114.55492            39.66431            68.19970           200.75100            43.97289            87.32211            85.35189           389.23199            46.34854            98.79194           354.69012           130.31889            34.92680           221.51089            18.63437            31.12990           100.52176           311.43859           143.28034            49.47205           171.05238            55.59280           158.04219           147.93546           158.22511            93.34725           339.45673           293.60542           137.01681            47.25649           159.31943            59.41132           127.88769            37.16723           256.44988           129.07981            63.63997           246.26816            53.23046           231.14026           132.50846            33.59800           149.15105            43.10169            65.54593            37.11698           116.81019            48.12926           107.64314            20.39050           105.09073            61.21722            25.77266            64.93678            26.56249           169.03587            96.23767           289.23037            89.27193            88.93507            28.00156            32.48762           492.47579           238.63541           115.41829            64.72645            76.35110            60.19302           115.79624            63.86352           159.38671           109.96677           278.62902           225.39397           153.99871           155.65903            64.18163            35.76964           101.43439            68.74917           183.80302            29.01139            16.35686           106.73456            50.87180            80.60156           141.79628            54.93397           100.06207           154.39779            34.27938           106.53538            12.68365           111.87298            28.62505            37.83056           313.87165            53.76412           485.26046            15.64754           140.71068            49.93721           293.09729           111.98504           110.78283            77.01845            38.35806            63.57285            94.37660            71.08108           101.74037            19.38287            18.13434           167.80434            22.80000            56.55226            23.22321            14.47886            17.49515            53.23254           260.35674            49.28900            76.02631            20.99377            60.36658            21.43642            43.18826           115.07657           126.50486           223.19400            22.22870            94.35110            27.70491            46.45426           155.24527           126.70849           360.98399           134.91231           208.30039           228.93013            25.82749           219.56484           210.99929            53.24434           357.88875           199.38145            74.08245           290.30904           122.44705           138.69224           544.72763            41.78703            61.13213            28.08480            35.48684            36.19344            28.96756            77.23073           123.53958           276.33395           107.25793           597.30724           503.62004            52.11300           176.51321            27.34824           173.70903            60.34336           104.75210           122.66687            14.40887           144.68200            67.73309            99.15072           299.52105           134.26451            47.98921            73.89649            36.71391           321.19223            10.64499           158.01666            55.03626           161.31749            63.67694           201.13497            44.79660           240.19770            62.60847           135.81438            73.79566           154.33678           234.94292            52.54700            56.94099           195.18860            28.11038           135.96269           141.72650           248.77277           121.56414           169.16182            98.71934           107.60134            67.79309           167.70280            87.47559            19.10422            37.92407           119.60648            13.81570            53.95529          1838.67685            95.48731            98.07916           124.41239            71.95996            15.93806            52.99447            69.08204           234.60918           172.57693            50.30279           230.06000            58.03461            51.07365            32.58636           140.94427            25.27467           284.73465            55.96308            89.88294            78.11602            71.83704            53.07559           125.97098           235.89451           318.34492            32.97334            79.08356           421.42571            18.78073            46.56489           104.45934           181.69691           104.74662           153.44579           111.56198           114.52906            28.20578            55.82339           143.15328            43.44145           356.27836           200.30395           161.61418           101.66604           155.30861            42.97788            24.07775            87.09062           109.07983           206.69866           111.15653            21.85774            57.38269            87.08101           133.89541            68.78008           142.14385            39.85313            96.83891            65.11580            91.69946            80.67956           148.35093           169.20464           112.77578           124.66329            76.66666            63.96772            79.34913            49.34581            85.30273           178.09286           167.16657           131.64646            45.09027            29.98609            32.79380            20.31679            28.67065            95.22678            37.44050            92.20686           139.49175            59.46036           140.25411           111.99247           143.44087           275.47913           126.30269           167.84449            99.03156            71.23873            60.69995            20.33336            48.92095           134.59971            57.22021            79.11588            71.01533            60.82356            37.04241            59.77003           327.45313            43.61558            14.84318            73.16432            87.99602            74.27093           101.70289            35.01343           561.06438            39.25887            54.86438           117.42316            71.81143           118.43865            92.24553          1026.26680            82.32308           104.61236           108.70774           372.46195           353.44730            80.57784           190.02397            28.49745           127.66579           112.34573            88.23633           116.73051            49.02311           135.39812           216.36945           249.26793            19.61807            52.64659            21.43221           161.25108           104.22982           406.17017           141.16512            24.56126            37.16418            80.95960           102.56277            49.99288            32.91470           173.23445           109.17480            27.89719           323.33653           253.33938            57.31994            49.93838            43.15383            79.51937           112.84220            18.60949           104.95064            84.15906           117.82679            87.82571            45.18463           174.40709           161.98947            93.87902            56.94048            36.65844           191.45040            46.35839           238.91356           118.61509            20.89512            49.74089            59.63208           504.77871           228.86177           348.97262            36.90180           132.35377           177.68402           304.41828            69.48016            27.30620            46.85534            15.11667           160.59161           159.39806           479.05198           264.48701           267.36329            63.40026            94.32964           121.12089            20.77799            62.14947           225.72414           163.70609            46.26446            92.05760           530.38734            62.86922            41.28606            55.43756           415.92422           239.90487            19.81977            53.46427           114.78537            60.91977            38.78064            63.30530            89.60647            19.23873            33.42920           169.60402            64.33059            95.49925            60.29910           119.45680           416.03626           113.15961            76.92228           116.27816            23.87804           157.83589            25.30881            56.61909  