# vtk DataFile Version 3.0
Output from R3t
ASCII
DATASET UNSTRUCTURED_GRID
POINTS       6291 double
      0.00000000E+00      0.98900000E+01     -0.25000000E+02
      0.00000000E+00      0.98900000E+01     -0.24000000E+02
      0.00000000E+00      0.98900000E+01     -0.23000000E+02
      0.00000000E+00      0.98900000E+01     -0.22000000E+02
      0.00000000E+00      0.98900000E+01     -0.21000000E+02
      0.00000000E+00      0.98900000E+01     -0.20000000E+02
      0.00000000E+00      0.98900000E+01     -0.19000000E+02
      0.00000000E+00      0.98900000E+01     -0.18000000E+02
      0.00000000E+00      0.98900000E+01     -0.17000000E+02
      0.00000000E+00      0.98900000E+01     -0.16000000E+02
      0.00000000E+00      0.98900000E+01     -0.15000000E+02
      0.00000000E+00      0.98900000E+01     -0.14000000E+02
      0.00000000E+00      0.98900000E+01     -0.13000000E+02
      0.00000000E+00      0.98900000E+01     -0.12000000E+02
      0.00000000E+00      0.98900000E+01     -0.11000000E+02
      0.00000000E+00      0.98900000E+01     -0.10000000E+02
      0.00000000E+00      0.98900000E+01     -0.90000000E+01
      0.00000000E+00      0.98900000E+01     -0.80000000E+01
      0.00000000E+00      0.98900000E+01     -0.70000000E+01
      0.00000000E+00      0.98900000E+01     -0.60000000E+01
      0.00000000E+00      0.98900000E+01     -0.50000000E+01
      0.00000000E+00      0.98900000E+01     -0.40000000E+01
      0.00000000E+00      0.98900000E+01     -0.30000000E+01
      0.00000000E+00      0.98900000E+01     -0.20000000E+01
      0.94700000E+01      0.27090000E+02     -0.20000000E+01
      0.94700000E+01      0.27090000E+02     -0.30000000E+01
      0.94700000E+01      0.27090000E+02     -0.40000000E+01
      0.94700000E+01      0.27090000E+02     -0.50000000E+01
      0.94700000E+01      0.27090000E+02     -0.60000000E+01
      0.94700000E+01      0.27090000E+02     -0.70000000E+01
      0.94700000E+01      0.27090000E+02     -0.80000000E+01
      0.94700000E+01      0.27090000E+02     -0.90000000E+01
      0.94700000E+01      0.27090000E+02     -0.10000000E+02
      0.94700000E+01      0.27090000E+02     -0.11000000E+02
      0.94700000E+01      0.27090000E+02     -0.12000000E+02
      0.94700000E+01      0.27090000E+02     -0.13000000E+02
      0.94700000E+01      0.27090000E+02     -0.14000000E+02
      0.94700000E+01      0.27090000E+02     -0.15000000E+02
      0.94700000E+01      0.27090000E+02     -0.16000000E+02
      0.94700000E+01      0.27090000E+02     -0.17000000E+02
      0.94700000E+01      0.27090000E+02     -0.18000000E+02
      0.94700000E+01      0.27090000E+02     -0.19000000E+02
      0.94700000E+01      0.27090000E+02     -0.20000000E+02
      0.94700000E+01      0.27090000E+02     -0.21000000E+02
      0.94700000E+01      0.27090000E+02     -0.22000000E+02
      0.94700000E+01      0.27090000E+02     -0.23000000E+02
      0.94700000E+01      0.27090000E+02     -0.24000000E+02
      0.94700000E+01      0.27090000E+02     -0.25000000E+02
      0.10980000E+02      0.14860000E+02     -0.20000000E+01
      0.10980000E+02      0.14860000E+02     -0.30000000E+01
      0.10980000E+02      0.14860000E+02     -0.40000000E+01
      0.10980000E+02      0.14860000E+02     -0.50000000E+01
      0.10980000E+02      0.14860000E+02     -0.60000000E+01
      0.10980000E+02      0.14860000E+02     -0.70000000E+01
      0.10980000E+02      0.14860000E+02     -0.80000000E+01
      0.10980000E+02      0.14860000E+02     -0.90000000E+01
      0.10980000E+02      0.14860000E+02     -0.10000000E+02
      0.10980000E+02      0.14860000E+02     -0.11000000E+02
      0.10980000E+02      0.14860000E+02     -0.12000000E+02
      0.10980000E+02      0.14860000E+02     -0.13000000E+02
      0.10980000E+02      0.14860000E+02     -0.14000000E+02
      0.10980000E+02      0.14860000E+02     -0.15000000E+02
      0.10980000E+02      0.14860000E+02     -0.16000000E+02
      0.10980000E+02      0.14860000E+02     -0.17000000E+02
      0.10980000E+02      0.14860000E+02     -0.18000000E+02
      0.10980000E+02      0.14860000E+02     -0.19000000E+02
      0.10980000E+02      0.14860000E+02     -0.20000000E+02
      0.10980000E+02      0.14860000E+02     -0.21000000E+02
      0.10980000E+02      0.14860000E+02     -0.22000000E+02
      0.10980000E+02      0.14860000E+02     -0.23000000E+02
      0.10980000E+02      0.14860000E+02     -0.24000000E+02
      0.10980000E+02      0.14860000E+02     -0.25000000E+02
      0.26850000E+02      0.17850000E+02     -0.20000000E+01
      0.26850000E+02      0.17850000E+02     -0.30000000E+01
      0.26850000E+02      0.17850000E+02     -0.40000000E+01
      0.26850000E+02      0.17850000E+02     -0.50000000E+01
      0.26850000E+02      0.17850000E+02     -0.60000000E+01
      0.26850000E+02      0.17850000E+02     -0.70000000E+01
      0.26850000E+02      0.17850000E+02     -0.80000000E+01
      0.26850000E+02      0.17850000E+02     -0.90000000E+01
      0.26850000E+02      0.17850000E+02     -0.10000000E+02
      0.26850000E+02      0.17850000E+02     -0.11000000E+02
      0.26850000E+02      0.17850000E+02     -0.12000000E+02
      0.26850000E+02      0.17850000E+02     -0.13000000E+02
      0.26850000E+02      0.17850000E+02     -0.14000000E+02
      0.26850000E+02      0.17850000E+02     -0.15000000E+02
      0.26850000E+02      0.17850000E+02     -0.16000000E+02
      0.26850000E+02      0.17850000E+02     -0.17000000E+02
      0.26850000E+02      0.17850000E+02     -0.18000000E+02
      0.26850000E+02      0.17850000E+02     -0.19000000E+02
      0.26850000E+02      0.17850000E+02     -0.20000000E+02
      0.26850000E+02      0.17850000E+02     -0.21000000E+02
      0.26850000E+02      0.17850000E+02     -0.22000000E+02
      0.26850000E+02      0.17850000E+02     -0.23000000E+02
      0.26850000E+02      0.17850000E+02     -0.24000000E+02
      0.26850000E+02      0.17850000E+02     -0.25000000E+02
      0.18640000E+02      0.00000000E+00     -0.20000000E+01
      0.18640000E+02      0.00000000E+00     -0.30000000E+01
      0.18640000E+02      0.00000000E+00     -0.40000000E+01
      0.18640000E+02      0.00000000E+00     -0.50000000E+01
      0.18640000E+02      0.00000000E+00     -0.60000000E+01
      0.18640000E+02      0.00000000E+00     -0.70000000E+01
      0.18640000E+02      0.00000000E+00     -0.80000000E+01
      0.18640000E+02      0.00000000E+00     -0.90000000E+01
      0.18640000E+02      0.00000000E+00     -0.10000000E+02
      0.18640000E+02      0.00000000E+00     -0.11000000E+02
      0.18640000E+02      0.00000000E+00     -0.12000000E+02
      0.18640000E+02      0.00000000E+00     -0.13000000E+02
      0.18640000E+02      0.00000000E+00     -0.14000000E+02
      0.18640000E+02      0.00000000E+00     -0.15000000E+02
      0.18640000E+02      0.00000000E+00     -0.16000000E+02
      0.18640000E+02      0.00000000E+00     -0.17000000E+02
      0.18640000E+02      0.00000000E+00     -0.18000000E+02
      0.18640000E+02      0.00000000E+00     -0.19000000E+02
      0.18640000E+02      0.00000000E+00     -0.20000000E+02
      0.18640000E+02      0.00000000E+00     -0.21000000E+02
      0.18640000E+02      0.00000000E+00     -0.22000000E+02
      0.18640000E+02      0.00000000E+00     -0.23000000E+02
      0.18640000E+02      0.00000000E+00     -0.24000000E+02
      0.18640000E+02      0.00000000E+00     -0.25000000E+02
     -0.51140522E+00      0.71588023E+01     -0.20000000E+01
     -0.49593660E+00      0.60927425E+01     -0.20000000E+01
      0.41797281E+00      0.66361707E+01     -0.20000000E+01
      0.43302881E+00      0.55428034E+01     -0.20000000E+01
      0.13561809E+01      0.61090631E+01     -0.20000000E+01
      0.13734931E+01      0.50157223E+01     -0.20000000E+01
      0.22946745E+01      0.55837861E+01     -0.20000000E+01
      0.23105556E+01      0.45126988E+01     -0.20000000E+01
      0.32265139E+01      0.50650006E+01     -0.20000000E+01
      0.32146856E+01      0.61321849E+01     -0.20000000E+01
      0.41392408E+01      0.56152676E+01     -0.20000000E+01
      0.41270756E+01      0.66752199E+01     -0.20000000E+01
      0.50462507E+01      0.61598431E+01     -0.20000000E+01
      0.50297219E+01      0.72122270E+01     -0.20000000E+01
      0.59521252E+01      0.67000404E+01     -0.20000000E+01
      0.59630340E+01      0.56527579E+01     -0.20000000E+01
      0.68728908E+01      0.61848904E+01     -0.20000000E+01
      0.68806275E+01      0.51415218E+01     -0.20000000E+01
      0.77829501E+01      0.56725643E+01     -0.20000000E+01
      0.77944939E+01      0.46334428E+01     -0.20000000E+01
      0.86893990E+01      0.51697938E+01     -0.20000000E+01
      0.86832209E+01      0.62039514E+01     -0.20000000E+01
      0.95803132E+01      0.57034205E+01     -0.20000000E+01
      0.96043383E+01      0.46763211E+01     -0.20000000E+01
      0.10484532E+02      0.52092251E+01     -0.20000000E+01
      0.10462370E+02      0.62354564E+01     -0.20000000E+01
      0.11361191E+02      0.57398163E+01     -0.20000000E+01
      0.11385157E+02      0.47172493E+01     -0.20000000E+01
      0.12269868E+02      0.52491723E+01     -0.20000000E+01
      0.12234766E+02      0.62715667E+01     -0.20000000E+01
      0.13145121E+02      0.57852105E+01     -0.20000000E+01
      0.13105170E+02      0.67981838E+01     -0.20000000E+01
      0.13996842E+02      0.63084968E+01     -0.20000000E+01
      0.13974063E+02      0.73252275E+01     -0.20000000E+01
      0.14866600E+02      0.68365691E+01     -0.20000000E+01
      0.14844683E+02      0.78553010E+01     -0.20000000E+01
      0.15738493E+02      0.73655798E+01     -0.20000000E+01
      0.15717492E+02      0.83861582E+01     -0.20000000E+01
      0.16611680E+02      0.78942206E+01     -0.20000000E+01
      0.16592536E+02      0.89174787E+01     -0.20000000E+01
      0.17469384E+02      0.84568878E+01     -0.20000000E+01
      0.17466436E+02      0.94547743E+01     -0.20000000E+01
[...]
POINT_DATA      6291
CELL_DATA     33106
SCALARS Resistivity(ohm.m) double 1
LOOKUP_TABLE default
           106.93721           247.50496           134.89011            32.75070           254.50673           347.25944           212.34436            15.12620            52.61521           351.80159           111.59043            48.95433            12.31183             8.19529           120.98447            54.51654           115.11604           157.38182           254.96428            55.83377           309.01805            20.17135           308.81955            87.50988           488.33003            43.01208            24.26212           131.95804            43.76620            12.33243            63.09207           102.10807            77.91631            46.38381            56.78177           133.97949            64.87697            65.98395            84.52445            27.20274           255.53535            53.16312            63.73338           102.89127            97.50256           159.79266           250.58147            27.12815            67.58493           113.49470            12.38376           137.68400            93.64495           108.82478           208.85427            17.46177           272.42686           217.38046           211.31355           611.67474           109.49636           190.11810            41.28100            81.59807             4.23256            51.80419            76.71680            59.78997            85.92891            95.84987           441.13222           138.32833            41.60607           101.23700            24.47608            26.49162           196.37071           243.54597            27.46501            30.38146            49.04702            56.60623            16.73818            55.11192           331.57735           101.23891           229.77016           149.16758           200.43153           271.49177            32.40760            87.24674           147.40462           108.65320            99.99710            77.54218           297.01915            49.59189            65.12904            75.62855            61.68896            60.88716           226.43145            56.28610            22.67069           482.80075            63.82611            78.17964           183.74082           613.87949            71.89069            69.46112            82.08423            22.90104           186.00666            71.69102            78.35313            93.03820            28.04908            96.25124            18.38576            21.76128            41.15119            79.76489           103.49079           147.26673           116.01661            40.61659            82.25012            48.40658             7.98169           130.41209            80.04415           159.46108           175.79441            72.39410           157.78006            55.14640           120.04785           109.53425            86.54080            24.12824           173.30673            75.59815           190.17114           180.56334           262.84474            57.48277            98.82172            19.85405            68.06134           116.41995            63.20945            99.39342            67.31119            52.05396            73.00150           433.49124           137.26787            21.41273           208.10626           170.94081           210.52470           377.07241           329.12285           195.98330           221.04343           202.81761           160.84346           147.33538            46.97393           162.19724           151.52959           126.02870            45.77394           236.60669            37.65218            87.35389           159.73393            71.18704            59.14295            38.94559           154.73134           158.44973           113.82994            30.46058           171.26509           147.96648            17.59278            58.09566            54.06458            70.27534           193.94413            64.91193            46.01511            29.29259           278.46843            23.10985           206.85610            45.85478           114.95379            38.86298            21.15715            23.59192           173.19890           192.47106            22.32569            81.84819            49.79526            52.56322           333.80076            45.69332           137.83128           169.74657           118.59767           360.06742            83.78328            76.94546            64.08088            80.36630           125.56138           140.01346           108.09085            59.17324           267.77030            47.20214            26.22860           277.17316            27.75271            54.51091            42.76589            59.53064           131.23303            21.64916           105.37499            97.03156            66.63982            62.88819            75.75954            12.46958            79.78869            99.94909            66.36851            35.99287           122.45161            80.86314            57.36076           223.59426            53.76823           302.76419           150.40301            27.22094           118.51219            74.75514            94.78439           139.55103           100.60548            21.72104            70.45175            61.35690           122.80363            29.23597           115.65142           102.79048            56.85925            49.59642           268.53385            80.83524           128.12043            91.09922           111.03863            67.59147            20.23711            32.51112           484.15471           154.93420            15.03252            70.87624            42.01285            42.06783           497.62127            26.12947            68.02565           397.68737           211.39940            49.19513            66.95785            70.37357           250.93972           205.20641           109.58091           255.96103           144.38601           239.05841            84.63989            99.63950            18.60943            43.00614           499.62014            17.25591            69.50059            18.19850            16.10547            67.26168           244.16966            99.93755            63.85889            72.16324            42.38808           122.73546           522.01348           104.81086           112.94562            70.69985           104.04169           383.84828          2447.83450           114.91321            60.21120           356.75861           299.89805            21.71588           165.89858           172.18763           207.75634           121.84927            32.87187           201.71634           115.50442            66.65166           102.55908          2868.79420            24.98950           135.25437           377.37846           213.97535           290.18245            67.34678            39.17009           143.57586            72.30521            85.33300            99.91729           161.79587           367.77791           141.30072           113.73677            49.06880            92.35257            47.55220            81.47680           132.21652           335.24885            34.68418            21.76651            40.65901            35.74936            31.55311           157.85681            67.37006            56.64099            46.35294            25.89458            45.57887           226.19538           395.25461           133.03917            95.16745            74.92938            43.06625            94.54657           137.68686            65.67771           106.68959           105.95621            44.09186            73.59259            85.72573            59.17903            63.65692            82.97332            36.36988            57.36067            18.20405            22.09470            59.16247            58.70883            48.99939           159.59907            71.95169            14.45875           130.90865            84.09858            18.06897           246.34830           103.67849            38.88537           121.73181            77.36185            61.20817           126.54690            90.21459            63.42101           200.82919           259.14873           144.55396            50.27942           211.77694            21.26239           410.70867            39.70774            58.61724           175.42043           101.98381           213.32619            62.65425           143.41918            34.62392            65.42954           277.73444           112.73804            27.93776            40.94257           366.03006           104.32334            77.05651           226.54393           374.74224            25.99737           142.34396           122.67002            46.10924            35.90790           156.72741            69.20820           112.23476            28.34184           170.52218           134.77879           136.28130           168.22518           121.32179            90.95222            50.05944            33.05469            80.79689            79.39443           103.62933           120.16600            52.80155             5.38683            27.56144           469.12225           117.61824            66.36554           246.09638           170.79940            88.91066           120.93124           231.96573           298.37985            28.59125           145.54079            61.89837           113.06766            82.35255            32.40747            86.24359            52.90032            71.89092            97.98666            73.20252           140.78707            55.21830           121.29508           265.18475            61.33926            54.28355            57.87867            40.02572           116.49303            61.78452           133.84485           144.86644            88.42120           111.84748           268.32934           246.34069            54.76068           107.38177            72.96451           117.54576           153.13005            31.05573           158.81791            73.97839            12.38564            20.51288           119.73071            31.86595           220.00463            77.09327            47.49891           154.12740            96.27587            99.84172            18.48357           410.05110           120.63467            22.85071            74.22141            90.32100            48.42549           164.33902            61.25892            75.37558            93.84028            18.72981            49.81083           315.45541           126.64138            76.55053            97.08818           161.54528            36.47802            72.82987            68.59395            94.42467           147.74639            39.15902            49.44274           204.41768           277.54610           151.78991           132.31882           166.00597           156.97524           148.22940            42.01256           914.66053           187.08994           209.96246            20.65496           140.22743            79.68178           102.28948           336.60162            30.27439            32.95703           303.12259           206.44551           317.30165           135.58434           705.51778           113.63619            40.16429            69.06430           198.73716            43.11400            86.94763            85.43932           401.23474            45.65972           104.01813           360.40329           132.35621            34.94299           216.24840            18.20776            30.95837            97.98635           313.95436           145.44555            49.41199           171.18519            55.79153           143.71097           147.21463           153.99350            88.94127           354.21951           297.50982           137.78792            46.82032           162.79629            59.14629           126.96128            36.93964           255.41350           127.89144            63.84570           241.27919            52.60944           228.22452           132.09970            33.61198           147.80329            42.81972            69.25158            36.87737           117.62029            47.86213           107.67259            20.10252           108.88746            60.83998            25.82410            64.54492            26.82840           170.46990            95.70647           294.70613            89.89915            88.63107            28.02242            32.47715           479.87202           239.04787           117.70326            65.15346            76.78833            58.72010           114.29883            64.00809           158.04692           109.94910           278.71708           225.63662           155.58566           160.52250            64.32073            34.47684           100.86658            67.89353           188.28914            29.23796            16.21479           106.68660            50.51046            80.62267           141.84541            54.27418           101.35612           153.97049            34.09769           107.03893            12.72490           111.39668            28.85330            38.12644           312.24607            53.53142           504.78318            15.72609           142.93633            49.54538           291.62273           111.85667           110.47574            76.87594            38.44068            64.01235            94.87627            71.42127           102.96829            19.34392            18.07533           167.77115            22.97213            56.67242            23.29776            14.55508            17.12426            53.50503           263.04457            49.67990            76.31526            20.74967            60.11436            21.12147            43.17689           115.45895           125.69719           228.50708            22.41393            95.16995            27.63705            45.89684           161.91476           125.17841           375.45932           135.91146           205.84373           229.82091            25.93915           221.43565           208.71891            51.94877           360.67087           190.49923            73.37031           283.11929           122.93767           138.05262           550.08158            42.57898            61.78148            27.82124            35.54073            36.20250            29.12416            75.12628           125.26773           281.00977           107.55469           604.27126           521.62447            51.92453           177.64779            27.36745           172.43993            62.29078           103.10253           119.21045            14.30184           145.44459            67.35009            99.76194           305.35795           132.65232            47.90769            72.81325            36.48185           317.53432            10.54076           160.52486            54.57530           162.37464            63.37747           197.79183            45.98957           242.13794            62.37675           138.10001            73.78528           153.74667           232.77949            52.48637            56.33825           194.16104            27.92565           134.73939           141.23886           250.89331           121.97777           169.40030            96.74099           110.17203            67.99178           168.00088            87.10094            19.08892            37.69367           116.88042            13.86772            53.23906          1707.82109            90.34100            97.72016           125.16701            72.65742            16.03665            53.16932            69.42314           234.33318           170.56773            50.28509           223.16149            61.35839            51.07441            32.63553           143.50614            25.41844           267.90586            56.26941            90.49765            78.37702            72.04002            53.10495           128.45136           240.91810           310.86259            32.22148            79.38372           426.30521            18.54832            46.81173           103.69877           184.20274           104.09149           153.50045           112.09161           112.06510            28.21839            55.62131           142.70094            43.62996           362.48512           202.46538           160.71910           102.51915           157.87587            42.63220            23.94535            87.93066           107.67662           208.24605           116.38059            21.53381            57.03972            86.34802           125.59759            68.73960           143.72532            40.22191            97.90252            64.53488            89.24352            81.03857           147.77713           170.03091           113.41932           120.75081            76.45796            62.86118            79.45036            48.23262            84.20561           178.23105           169.06826           131.88982            44.81754            30.19983            32.45766            20.04334            28.86445            94.72908            37.65841            92.74219           139.98619            59.21749           142.86698           112.12820           134.50129           281.60894           126.78746           165.20236            99.55508            69.94788            61.33988            20.30368            48.50594           134.36076            56.47589            78.04555            71.25111            60.91838            37.23490            58.86793           322.55484            43.65584            14.73128            72.43583            85.18722            73.57812           103.39337            35.09427           575.70796            39.40045            54.34133           118.02788            71.20292           116.48936            90.59593          1007.77554            81.11422           105.62911           109.25438           387.85104           356.84418            80.37377           186.00473            27.40048           129.46162           111.55990            87.39784           117.40016            47.85278           133.28198           218.71220           247.08066            19.69291            52.84117            21.48060           162.25305           104.06617           401.03858           141.15291            24.39364            35.99734            77.59336           102.56086            51.01328            33.09772           174.23820           108.44342            27.98069           326.93780           250.25154            56.75861            49.08966            43.25149            79.57870           112.63215            18.56254           102.11719            83.17270           117.42820            85.85666            44.73671           173.91125           159.45824            94.91044            56.77972            35.60866           191.46774            46.26930           236.50037           117.71412            20.80950            50.16205            60.03872           500.85525           228.60039           351.50033            37.11728           132.40293           178.91319           303.88397            69.88636            27.44438            46.69291            15.10865           161.88834           158.93874           490.06463           263.48897           269.58130            62.69550            92.69148           126.13156            26.19892            62.32246           226.52083           165.22939            46.10106            92.13924           539.08716            61.14509            40.44522            54.82394           422.07871           242.12871            19.60886            52.59868           113.28380            60.42151            38.64761            62.53404            89.33510            18.92352            33.27366           171.27147            63.47747            94.55160            60.89080           117.86333           432.21030           112.88735            74.57255           113.72484            23.76252           160.64749            25.16141            54.86325  