# vtk DataFile Version 3.0
Output from R3t
ASCII
DATASET UNSTRUCTURED_GRID
POINTS       6291 double
      0.00000000E+00      0.98900000E+01     -0.25000000E+02
      0.00000000E+00      0.98900000E+01     -0.24000000E+02
      0.00000000E+00      0.98900000E+01     -0.23000000E+02
      0.00000000E+00      0.98900000E+01     -0.22000000E+02
      0.00000000E+00      0.98900000E+01     -0.21000000E+02
      0.00000000E+00      0.98900000E+01     -0.20000000E+02
      0.00000000E+00      0.98900000E+01     -0.19000000E+02
      0.00000000E+00      0.98900000E+01     -0.18000000E+02
      0.00000000E+00      0.98900000E+01     -0.17000000E+02
      0.00000000E+00      0.98900000E+01     -0.16000000E+02
      0.00000000E+00      0.98900000E+01     -0.15000000E+02
      0.00000000E+00      0.98900000E+01     -0.14000000E+02
      0.00000000E+00      0.98900000E+01     -0.13000000E+02
      0.00000000E+00      0.98900000E+01     -0.12000000E+02
      0.00000000E+00      0.98900000E+01     -0.11000000E+02
      0.00000000E+00      0.98900000E+01     -0.10000000E+02
      0.00000000E+00      0.98900000E+01     -0.90000000E+01
      0.00000000E+00      0.98900000E+01     -0.80000000E+01
      0.00000000E+00      0.98900000E+01     -0.70000000E+01
      0.00000000E+00      0.98900000E+01     -0.60000000E+01
      0.00000000E+00      0.98900000E+01     -0.50000000E+01
      0.00000000E+00      0.98900000E+01     -0.40000000E+01
      0.00000000E+00      0.98900000E+01     -0.30000000E+01
      0.00000000E+00      0.98900000E+01     -0.20000000E+01
      0.94700000E+01      0.27090000E+02     -0.20000000E+01
      0.94700000E+01      0.27090000E+02     -0.30000000E+01
      0.94700000E+01      0.27090000E+02     -0.40000000E+01
      0.94700000E+01      0.27090000E+02     -0.50000000E+01
      0.94700000E+01      0.27090000E+02     -0.60000000E+01
      0.94700000E+01      0.27090000E+02     -0.70000000E+01
      0.94700000E+01      0.27090000E+02     -0.80000000E+01
      0.94700000E+01      0.27090000E+02     -0.90000000E+01
      0.94700000E+01      0.27090000E+02     -0.10000000E+02
      0.94700000E+01      0.27090000E+02     -0.11000000E+02
      0.94700000E+01      0.27090000E+02     -0.12000000E+02
      0.94700000E+01      0.27090000E+02     -0.13000000E+02
      0.94700000E+01      0.27090000E+02     -0.14000000E+02
      0.94700000E+01      0.27090000E+02     -0.15000000E+02
      0.94700000E+01      0.27090000E+02     -0.16000000E+02
      0.94700000E+01      0.27090000E+02     -0.17000000E+02
      0.94700000E+01      0.27090000E+02     -0.18000000E+02
      0.94700000E+01      0.27090000E+02     -0.19000000E+02
      0.94700000E+01      0.27090000E+02     -0.20000000E+02
      0.94700000E+01      0.27090000E+02     -0.21000000E+02
      0.94700000E+01      0.27090000E+02     -0.22000000E+02
      0.94700000E+01      0.27090000E+02     -0.23000000E+02
      0.94700000E+01      0.27090000E+02     -0.24000000E+02
      0.94700000E+01      0.27090000E+02     -0.25000000E+02
      0.10980000E+02      0.14860000E+02     -0.20000000E+01
      0.10980000E+02      0.14860000E+02     -0.30000000E+01
      0.10980000E+02      0.14860000E+02     -0.40000000E+01
      0.10980000E+02      0.14860000E+02     -0.50000000E+01
      0.10980000E+02      0.14860000E+02     -0.60000000E+01
      0.10980000E+02      0.14860000E+02     -0.70000000E+01
      0.10980000E+02      0.14860000E+02     -0.80000000E+01
      0.10980000E+02      0.14860000E+02     -0.90000000E+01
      0.10980000E+02      0.14860000E+02     -0.10000000E+02
      0.10980000E+02      0.14860000E+02     -0.11000000E+02
      0.10980000E+02      0.14860000E+02     -0.12000000E+02
      0.10980000E+02      0.14860000E+02     -0.13000000E+02
      0.10980000E+02      0.14860000E+02     -0.14000000E+02
      0.10980000E+02      0.14860000E+02     -0.15000000E+02
      0.10980000E+02      0.14860000E+02     -0.16000000E+02
      0.10980000E+02      0.14860000E+02     -0.17000000E+02
      0.10980000E+02      0.14860000E+02     -0.18000000E+02
      0.10980000E+02      0.14860000E+02     -0.19000000E+02
      0.10980000E+02      0.14860000E+02     -0.20000000E+02
      0.10980000E+02      0.14860000E+02     -0.21000000E+02
      0.10980000E+02      0.14860000E+02     -0.22000000E+02
      0.10980000E+02      0.14860000E+02     -0.23000000E+02
      0.10980000E+02      0.14860000E+02     -0.24000000E+02
      0.10980000E+02      0.14860000E+02     -0.25000000E+02
      0.26850000E+02      0.17850000E+02     -0.20000000E+01
      0.26850000E+02      0.17850000E+02     -0.30000000E+01
      0.26850000E+02      0.17850000E+02     -0.40000000E+01
      0.26850000E+02      0.17850000E+02     -0.50000000E+01
      0.26850000E+02      0.17850000E+02     -0.60000000E+01
      0.26850000E+02      0.17850000E+02     -0.70000000E+01
      0.26850000E+02      0.17850000E+02     -0.80000000E+01
      0.26850000E+02      0.17850000E+02     -0.90000000E+01
      0.26850000E+02      0.17850000E+02     -0.10000000E+02
      0.26850000E+02      0.17850000E+02     -0.11000000E+02
      0.26850000E+02      0.17850000E+02     -0.12000000E+02
      0.26850000E+02      0.17850000E+02     -0.13000000E+02
      0.26850000E+02      0.17850000E+02     -0.14000000E+02
      0.26850000E+02      0.17850000E+02     -0.15000000E+02
      0.26850000E+02      0.17850000E+02     -0.16000000E+02
      0.26850000E+02      0.17850000E+02     -0.17000000E+02
      0.26850000E+02      0.17850000E+02     -0.18000000E+02
      0.26850000E+02      0.17850000E+02     -0.19000000E+02
      0.26850000E+02      0.17850000E+02     -0.20000000E+02
      0.26850000E+02      0.17850000E+02     -0.21000000E+02
      0.26850000E+02      0.17850000E+02     -0.22000000E+02
      0.26850000E+02      0.17850000E+02     -0.23000000E+02
      0.26850000E+02      0.17850000E+02     -0.24000000E+02
      0.26850000E+02      0.17850000E+02     -0.25000000E+02
      0.18640000E+02      0.00000000E+00     -0.20000000E+01
      0.18640000E+02      0.00000000E+00     -0.30000000E+01
      0.18640000E+02      0.00000000E+00     -0.40000000E+01
      0.18640000E+02      0.00000000E+00     -0.50000000E+01
      0.18640000E+02      0.00000000E+00     -0.60000000E+01
      0.18640000E+02      0.00000000E+00     -0.70000000E+01
      0.18640000E+02      0.00000000E+00     -0.80000000E+01
      0.18640000E+02      0.00000000E+00     -0.90000000E+01
      0.18640000E+02      0.00000000E+00     -0.10000000E+02
      0.18640000E+02      0.00000000E+00     -0.11000000E+02
      0.18640000E+02      0.00000000E+00     -0.12000000E+02
      0.18640000E+02      0.00000000E+00     -0.13000000E+02
      0.18640000E+02      0.00000000E+00     -0.14000000E+02
      0.18640000E+02      0.00000000E+00     -0.15000000E+02
      0.18640000E+02      0.00000000E+00     -0.16000000E+02
      0.18640000E+02      0.00000000E+00     -0.17000000E+02
      0.18640000E+02      0.00000000E+00     -0.18000000E+02
      0.18640000E+02      0.00000000E+00     -0.19000000E+02
      0.18640000E+02      0.00000000E+00     -0.20000000E+02
      0.18640000E+02      0.00000000E+00     -0.21000000E+02
      0.18640000E+02      0.00000000E+00     -0.22000000E+02
      0.18640000E+02      0.00000000E+00     -0.23000000E+02
      0.18640000E+02      0.00000000E+00     -0.24000000E+02
      0.18640000E+02      0.00000000E+00     -0.25000000E+02
     -0.51140522E+00      0.71588023E+01     -0.20000000E+01
     -0.49593660E+00      0.60927425E+01     -0.20000000E+01
      0.41797281E+00      0.66361707E+01     -0.20000000E+01
      0.43302881E+00      0.55428034E+01     -0.20000000E+01
      0.13561809E+01      0.61090631E+01     -0.20000000E+01
      0.13734931E+01      0.50157223E+01     -0.20000000E+01
      0.22946745E+01      0.55837861E+01     -0.20000000E+01
      0.23105556E+01      0.45126988E+01     -0.20000000E+01
      0.32265139E+01      0.50650006E+01     -0.20000000E+01
      0.32146856E+01      0.61321849E+01     -0.20000000E+01
      0.41392408E+01      0.56152676E+01     -0.20000000E+01
      0.41270756E+01      0.66752199E+01     -0.20000000E+01
      0.50462507E+01      0.61598431E+01     -0.20000000E+01
      0.50297219E+01      0.72122270E+01     -0.20000000E+01
      0.59521252E+01      0.67000404E+01     -0.20000000E+01
      0.59630340E+01      0.56527579E+01     -0.20000000E+01
      0.68728908E+01      0.61848904E+01     -0.20000000E+01
      0.68806275E+01      0.51415218E+01     -0.20000000E+01
      0.77829501E+01      0.56725643E+01     -0.20000000E+01
      0.77944939E+01      0.46334428E+01     -0.20000000E+01
      0.86893990E+01      0.51697938E+01     -0.20000000E+01
      0.86832209E+01      0.62039514E+01     -0.20000000E+01
      0.95803132E+01      0.57034205E+01     -0.20000000E+01
      0.96043383E+01      0.46763211E+01     -0.20000000E+01
      0.10484532E+02      0.52092251E+01     -0.20000000E+01
      0.10462370E+02      0.62354564E+01     -0.20000000E+01
      0.11361191E+02      0.57398163E+01     -0.20000000E+01
      0.11385157E+02      0.47172493E+01     -0.20000000E+01
      0.12269868E+02      0.52491723E+01     -0.20000000E+01
      0.12234766E+02      0.62715667E+01     -0.20000000E+01
      0.13145121E+02      0.57852105E+01     -0.20000000E+01
      0.13105170E+02      0.67981838E+01     -0.20000000E+01
      0.13996842E+02      0.63084968E+01     -0.20000000E+01
      0.13974063E+02      0.73252275E+01     -0.20000000E+01
      0.14866600E+02      0.68365691E+01     -0.20000000E+01
      0.14844683E+02      0.78553010E+01     -0.20000000E+01
      0.15738493E+02      0.73655798E+01     -0.20000000E+01
      0.15717492E+02      0.83861582E+01     -0.20000000E+01
      0.16611680E+02      0.78942206E+01     -0.20000000E+01
      0.16592536E+02      0.89174787E+01     -0.20000000E+01
      0.17469384E+02      0.84568878E+01     -0.20000000E+01
      0.17466436E+02      0.94547743E+01     -0.20000000E+01
[...]
POINT_DATA      6291
CELL_DATA     33106
SCALARS Resistivity(ohm.m) double 1
LOOKUP_TABLE default
           108.14586           269.27908           134.24105            33.00815           258.48820           352.32432           223.25553            15.41873            53.59921           355.34647           110.97648            49.59346            12.51988             8.30230           122.39444            56.17132           117.92605           162.35296           257.47333            54.08684           304.35640            20.11060           322.76083            88.05294           389.71819            43.70090            24.15941           136.81458            44.11934            12.54425            62.85294           103.30262            78.56229            48.17033            57.68181           138.69439            65.45641            66.18012            85.41240            27.18608           244.83342            52.59850            64.15966           103.35194            98.27463           161.61299           237.98140            27.09292            67.66054           115.14309            12.61348           138.15303            96.13338           109.94113           212.47847            17.68852           230.32842           220.96018           212.81428           651.36436           111.97236           188.73328            42.77977            83.02240             4.25207            52.48672            78.78204            61.67931            85.52892            97.77184           440.07238           139.96429            41.76341           101.99086            23.43985            26.87796           201.21711           247.76591            26.85537            30.39303            49.28464            56.96913            16.37721            56.08399           357.28485           101.67964           224.98279           146.90735           205.77368           296.83487            32.31326            83.99924           149.15547           110.67646           101.04609            77.21866           312.49299            50.58603            65.06950            76.17007            62.01706            60.76622           234.63344            56.00198            22.62602           426.41201            64.07819            77.91705           195.40523           617.20762            69.46282            69.63657            83.29611            22.20931           198.31345            71.23913            78.67619            90.35941            27.56936           101.00829            18.29250            21.43679            43.52300            80.80822           114.94921           148.85767           111.26044            42.16095            82.55815            50.10423             8.06866           133.45334            81.74205           163.05959           178.72182            77.70545           163.02630            55.89488           121.58348           110.93873            87.99862            23.98000           144.75114            77.48584           193.27933           184.10274           170.16207            57.88839           101.76287            20.17228            68.73190           105.76588            63.63372            99.95094            68.43047            52.39352            74.25278           466.90992           139.59228            20.77458           207.35627           172.02087           218.59407           298.94931           333.20755           197.53324           150.87498           203.61447           150.24319           152.27746            49.58498           162.90349           155.70862           132.45862            46.63048           239.12496            38.16258            88.36464           160.93865            71.97426            59.15130            38.73514           154.80544           160.51044           115.61254            30.01269           174.00866           149.73875            17.48622            58.67306            54.20065            69.47818           197.18396            57.44657            46.41828            29.77140           301.17987            22.27079           225.81852            46.27174           116.92062            39.24532            21.58840            22.87727           180.84021           197.73726            21.58290            81.47144            49.45704            52.40275           337.73664            45.85597           137.46754           161.20427           123.13736           363.60223            84.68571            77.76378            64.29295            81.64473           129.31881           145.89812           109.42312            59.21395           269.54853            47.29567            26.19469           314.06924            27.48976            55.32270            43.19767            60.17466           130.68670            19.74808           105.20977            98.33850            66.33678            62.94848            75.43330            12.69133            80.01838           104.57678            67.21633            37.17908           124.84249            79.36140            57.07345           227.92558            54.33776           304.67533           153.48373            27.30568           121.57569            75.15907            97.68682           127.65637           101.63691            21.11566            70.54276            61.72963           112.21669            29.66133           119.40428           103.81853            58.56268            50.22810           273.15846            84.72120           129.91356            92.09334           112.31271            66.99529            21.12270            32.48046           523.61800           161.36574            15.05325            71.47053            42.68949            42.74408           496.97784            26.67407            71.03811           401.10099           214.53291            49.08814            66.21162            60.59495           243.47703           220.95506           112.44735           262.60153           145.73210           218.45163            93.09184           100.70613            18.68454            42.67053           515.28092            17.64402            67.77422            18.17666            16.27817            72.33728           252.12662           101.93955            63.42937            77.71135            42.87105           125.14732           556.01418           104.06708           114.35708            71.36461           104.37846           403.60757          2234.00594           118.18908            60.21622           361.46751           308.65130            22.62202           164.32751           174.28399           242.00288           122.98590            32.61879           209.46986           116.57711            67.34657           104.01578          2610.52990            24.94371           136.26737           378.08915           136.22679           292.33456            66.95409            39.26039           150.80695            74.44724            86.66075           100.82921           161.84537           376.83789           146.72054           115.93984            49.52141            92.94209            48.52361            82.44314           131.77302           352.12975            34.33308            22.43304            40.97376            35.95244            30.85674           158.01225            71.74049            55.09931            48.17982            26.10035            46.26667           228.75292           408.76388           124.09574            92.99052            75.27385            43.18088            96.04943           138.29721            63.44708           108.19251           108.14251            43.60117            73.85395            87.09533            59.58540            63.48885            84.41290            36.84578            55.55186            19.38205            22.10735            57.03106            60.42021            50.47408           159.85113            72.64108            13.77569           128.82994            85.14074            18.14426           251.69474           104.52467            41.27898           122.77279            77.35023            61.17504           131.79615            91.09819            60.69622           205.08951           271.82966           146.74068            50.66287           220.03487            21.13909           424.68537            40.05768            62.03114           178.29121           103.86054           215.50065            63.60864           144.82457            34.57407            68.28976           274.49518           114.21862            27.90652            40.61527           383.32418           104.71390            77.53086           228.37992           378.32722            25.29123           143.78963           124.67863            45.80832            36.53864           163.74995            70.30666           113.33068            28.15333           165.96768           134.24722           139.21546           181.12878           122.15219            92.12953            51.11772            33.88697            81.91584            80.17118           104.51210           122.19714            53.08896             5.42149            27.50768           462.72356           119.72806            67.41774           249.11360           173.86415            90.07789           123.30248           219.25298           301.99355            28.06619           146.49221            62.25021           114.45395            82.09373            32.35409            86.45893            53.29118            75.95217            99.39648            73.66249           143.36729            55.60134           122.24973           242.20070            61.76807            50.72415            58.87057            40.71395           121.53617            59.59956           136.77813           149.40093            91.91615           113.16551           256.37404           249.26560            54.18939           110.26849            74.19871           119.86261           154.66410            31.57296           161.01497            74.76513            12.61311            20.75225           120.81403            32.65558           231.40624            77.51466            52.74416           154.07555            96.93564           102.20582            18.64668           406.36714           123.09991            22.68928            73.93548            90.09296            48.74661           161.90035            60.35286            76.85305            94.42971            19.09463            50.05534           317.56168           130.27866            77.04532            97.37454           166.15825            37.75424            76.92078            69.35622            97.73797           150.19285            40.89822            49.75408           207.74494           232.07600           154.70471           133.51714           170.31411           145.72311           177.70468            42.17858          1006.78091           189.35895           169.33598            21.91777           142.54231            82.45822           104.95163           337.90237            29.97040            32.73406           324.80681           208.62329           323.60340           137.80333           720.04919           111.96114            40.27670            68.24842           201.67235            43.82693            87.86306            84.83493           419.11329            46.14401           105.80267           366.01182           122.49193            35.07513           217.12990            18.91153            31.27101           100.67045           320.85891           147.04549            49.47432           172.22683            55.75000           158.27847           149.08248           116.75527            95.46312           359.16959           261.42616           139.59334            47.46058           167.22704            59.38758           128.83981            37.85268           187.68680           129.05644            65.06341           245.29684            53.09781           224.86812           132.80726            33.04897           149.15484            43.41603            61.20967            37.27247           119.99756            48.20031           109.11841            20.60708           109.34908            61.48123            25.87123            65.16172            26.73884           172.14165            96.60268           301.18376            91.51453            89.49017            27.96073            32.49619           468.60066           252.54283           119.95439            65.92993            76.05355            61.92199           117.42617            64.41420           160.24380           112.97945           276.36050           226.70902           158.45475           133.69568            67.77381            37.90521           101.64161            70.67935           190.61617            29.20991            16.52912           108.09506            51.13535            82.93256           143.79467            55.01646            96.30037           129.67591            34.41639           108.64947            12.59101           113.45165            29.00211            38.60588           317.04170            53.92255           545.48376            16.74776           146.76715            50.12132           299.52893           113.30518           112.99614            78.86334            38.50140            64.61743            96.02115            71.84634           104.23916            19.33000            18.04324           170.00351            22.97346            57.46239            23.02668            14.30830            17.65039            53.29794           236.49335            52.62086            76.09956            21.48050            60.71591            21.72591            43.56272           115.66668           127.11338           232.12512            22.75160            96.07648            27.93875            46.32986           167.61578           126.39614           391.82786           137.59465           208.50585           219.34377            25.83740           220.53044           210.13958            53.41512           377.58950           203.89371            73.75548           286.80149           124.58340           141.51884           566.46543            40.77364            56.11357            28.41769            35.64127            35.87740            28.59203            79.52454           127.61779           251.01239           108.04663           671.85544           556.11734            52.77180           183.63257            26.97364           179.91372            58.47630           105.81762           123.37304            14.53945           160.41792            67.19203           100.15310           297.11455           140.12335            47.97721            75.34452            36.93116           321.49626            10.68714           166.24567            54.89315           166.15396            63.63835           202.25797            45.68865           243.63527            62.97612           140.83043            73.80965           156.86691           238.59883            53.22949            56.71274           182.86469            28.25485           135.79053           142.64182           249.04640            83.31390           173.09225            68.34076           106.88395            67.68406           175.45723            88.36872            19.07200            38.25971           123.66400            13.34633            53.80454          1488.23542            96.83233            68.59621           123.81454            74.21025            15.73588            53.68737            68.70286           238.49869           173.48885            50.70566           229.99366            58.73006            51.58391            32.15049           146.73385            25.18239           307.06136            56.79378            90.71523            78.32458            72.19936            53.21156           125.37231           202.88614           308.00696            33.34951            79.85138           436.81212            18.92364            49.17767           104.05095           174.42038           107.07094           154.38984           114.27088           116.17708            28.13648            55.86618           142.45660            43.74417           317.54526           206.27032           159.98032           103.91640           156.59081            43.41714            24.16933            89.93451           110.32153           196.35797           118.17552            22.14330            57.62966            87.33286           146.31661            68.88615           144.04346            40.55190            99.76609            63.96565            91.00182            81.29479           150.11333           169.71262           109.82832           123.51973            77.71691            65.22983            80.20834            48.92830            86.03104           178.48631           172.94446           132.69027            45.32151            30.21022            33.11766            20.62339            28.83703            95.55634            37.91060            91.21604           139.52196            60.61595           145.57395           112.99348           128.49610           262.44031           126.65470           168.92842           100.37256            73.07324            61.98818            20.29643            49.49052           138.46522            57.39306            76.58967            71.70721            65.28196            37.99828            59.42758           336.20720            43.45130            15.00704            72.27045            90.05889            75.16414           102.07462            35.22266           611.56512            39.39031            55.23587           124.02749            71.79464           118.81053            92.97355          1632.01887            81.98450            99.19120           103.32860           534.13588           361.55547            81.35214           191.60260            26.70724           130.12625           112.89015            88.33694           118.44317            49.24495           136.21615           224.59224           253.03321            19.57253            52.83149            21.30178           162.15671           105.59724           397.60726           145.63011            24.68359            39.34884            79.72004           103.94783            47.88672            32.60847           176.19942           109.58924            27.61699           362.20977           260.44697            56.94818            49.66825            43.39783            78.84344           113.17288            18.58011           107.17534            85.42674           119.25279            88.96679            45.39724           175.50131           160.51501            96.84292            57.62715            31.82974           193.64713            46.37543           192.34062           120.05162            21.33025            48.02708            59.99141           506.89805           230.54493           396.21621            36.81254           140.13461           181.01499           301.61962            71.00116            27.00445            47.06990            14.40538           161.21899           161.02031           505.72896           260.29810           272.86031            63.86532            95.07171           130.31272            44.27202            62.28164           227.25410           164.46089            46.22629            63.94305           572.49922            64.82301            41.72068            55.84907           454.77538           250.78148            20.06963            53.12277           101.34672            60.59512            38.83721            63.90564            90.24638            19.38541            33.93886           174.85360            65.95638            95.66171            60.04698           119.33884           455.52473           115.81970            74.63684           121.46694            24.55313           162.87053            25.39277            56.75030  