# vtk DataFile Version 3.0
Output from R3t
ASCII
DATASET UNSTRUCTURED_GRID
POINTS       6291 double
      0.00000000E+00      0.98900000E+01     -0.25000000E+02
      0.00000000E+00      0.98900000E+01     -0.24000000E+02
      0.00000000E+00      0.98900000E+01     -0.23000000E+02
      0.00000000E+00      0.98900000E+01     -0.22000000E+02
      0.00000000E+00      0.98900000E+01     -0.21000000E+02
      0.00000000E+00      0.98900000E+01     -0.20000000E+02
      0.00000000E+00      0.98900000E+01     -0.19000000E+02
      0.00000000E+00      0.98900000E+01     -0.18000000E+02
      0.00000000E+00      0.98900000E+01     -0.17000000E+02
      0.00000000E+00      0.98900000E+01     -0.16000000E+02
      0.00000000E+00      0.98900000E+01     -0.15000000E+02
      0.00000000E+00      0.98900000E+01     -0.14000000E+02
      0.00000000E+00      0.98900000E+01     -0.13000000E+02
      0.00000000E+00      0.98900000E+01     -0.12000000E+02
      0.00000000E+00      0.98900000E+01     -0.11000000E+02
      0.00000000E+00      0.98900000E+01     -0.10000000E+02
      0.00000000E+00      0.98900000E+01     -0.90000000E+01
      0.00000000E+00      0.98900000E+01     -0.80000000E+01
      0.00000000E+00      0.98900000E+01     -0.70000000E+01
      0.00000000E+00      0.98900000E+01     -0.60000000E+01
      0.00000000E+00      0.98900000E+01     -0.50000000E+01
      0.00000000E+00      0.98900000E+01     -0.40000000E+01
      0.00000000E+00      0.98900000E+01     -0.30000000E+01
      0.00000000E+00      0.98900000E+01     -0.20000000E+01
      0.94700000E+01      0.27090000E+02     -0.20000000E+01
      0.94700000E+01      0.27090000E+02     -0.30000000E+01
      0.94700000E+01      0.27090000E+02     -0.40000000E+01
      0.94700000E+01      0.27090000E+02     -0.50000000E+01
      0.94700000E+01      0.27090000E+02     -0.60000000E+01
      0.94700000E+01      0.27090000E+02     -0.70000000E+01
      0.94700000E+01      0.27090000E+02     -0.80000000E+01
      0.94700000E+01      0.27090000E+02     -0.90000000E+01
      0.94700000E+01      0.27090000E+02     -0.10000000E+02
      0.94700000E+01      0.27090000E+02     -0.11000000E+02
      0.94700000E+01      0.27090000E+02     -0.12000000E+02
      0.94700000E+01      0.27090000E+02     -0.13000000E+02
      0.94700000E+01      0.27090000E+02     -0.14000000E+02
      0.94700000E+01      0.27090000E+02     -0.15000000E+02
      0.94700000E+01      0.27090000E+02     -0.16000000E+02
      0.94700000E+01      0.27090000E+02     -0.17000000E+02
      0.94700000E+01      0.27090000E+02     -0.18000000E+02
      0.94700000E+01      0.27090000E+02     -0.19000000E+02
      0.94700000E+01      0.27090000E+02     -0.20000000E+02
      0.94700000E+01      0.27090000E+02     -0.21000000E+02
      0.94700000E+01      0.27090000E+02     -0.22000000E+02
      0.94700000E+01      0.27090000E+02     -0.23000000E+02
      0.94700000E+01      0.27090000E+02     -0.24000000E+02
      0.94700000E+01      0.27090000E+02     -0.25000000E+02
      0.10980000E+02      0.14860000E+02     -0.20000000E+01
      0.10980000E+02      0.14860000E+02     -0.30000000E+01
      0.10980000E+02      0.14860000E+02     -0.40000000E+01
      0.10980000E+02      0.14860000E+02     -0.50000000E+01
      0.10980000E+02      0.14860000E+02     -0.60000000E+01
      0.10980000E+02      0.14860000E+02     -0.70000000E+01
      0.10980000E+02      0.14860000E+02     -0.80000000E+01
      0.10980000E+02      0.14860000E+02     -0.90000000E+01
      0.10980000E+02      0.14860000E+02     -0.10000000E+02
      0.10980000E+02      0.14860000E+02     -0.11000000E+02
      0.10980000E+02      0.14860000E+02     -0.12000000E+02
      0.10980000E+02      0.14860000E+02     -0.13000000E+02
      0.10980000E+02      0.14860000E+02     -0.14000000E+02
      0.10980000E+02      0.14860000E+02     -0.15000000E+02
      0.10980000E+02      0.14860000E+02     -0.16000000E+02
      0.10980000E+02      0.14860000E+02     -0.17000000E+02
      0.10980000E+02      0.14860000E+02     -0.18000000E+02
      0.10980000E+02      0.14860000E+02     -0.19000000E+02
      0.10980000E+02      0.14860000E+02     -0.20000000E+02
      0.10980000E+02      0.14860000E+02     -0.21000000E+02
      0.10980000E+02      0.14860000E+02     -0.22000000E+02
      0.10980000E+02      0.14860000E+02     -0.23000000E+02
      0.10980000E+02      0.14860000E+02     -0.24000000E+02
      0.10980000E+02      0.14860000E+02     -0.25000000E+02
      0.26850000E+02      0.17850000E+02     -0.20000000E+01
      0.26850000E+02      0.17850000E+02     -0.30000000E+01
      0.26850000E+02      0.17850000E+02     -0.40000000E+01
      0.26850000E+02      0.17850000E+02     -0.50000000E+01
      0.26850000E+02      0.17850000E+02     -0.60000000E+01
      0.26850000E+02      0.17850000E+02     -0.70000000E+01
      0.26850000E+02      0.17850000E+02     -0.80000000E+01
      0.26850000E+02      0.17850000E+02     -0.90000000E+01
      0.26850000E+02      0.17850000E+02     -0.10000000E+02
      0.26850000E+02      0.17850000E+02     -0.11000000E+02
      0.26850000E+02      0.17850000E+02     -0.12000000E+02
      0.26850000E+02      0.17850000E+02     -0.13000000E+02
      0.26850000E+02      0.17850000E+02     -0.14000000E+02
      0.26850000E+02      0.17850000E+02     -0.15000000E+02
      0.26850000E+02      0.17850000E+02     -0.16000000E+02
      0.26850000E+02      0.17850000E+02     -0.17000000E+02
      0.26850000E+02      0.17850000E+02     -0.18000000E+02
      0.26850000E+02      0.17850000E+02     -0.19000000E+02
      0.26850000E+02      0.17850000E+02     -0.20000000E+02
      0.26850000E+02      0.17850000E+02     -0.21000000E+02
      0.26850000E+02      0.17850000E+02     -0.22000000E+02
      0.26850000E+02      0.17850000E+02     -0.23000000E+02
      0.26850000E+02      0.17850000E+02     -0.24000000E+02
      0.26850000E+02      0.17850000E+02     -0.25000000E+02
      0.18640000E+02      0.00000000E+00     -0.20000000E+01
      0.18640000E+02      0.00000000E+00     -0.30000000E+01
      0.18640000E+02      0.00000000E+00     -0.40000000E+01
      0.18640000E+02      0.00000000E+00     -0.50000000E+01
      0.18640000E+02      0.00000000E+00     -0.60000000E+01
      0.18640000E+02      0.00000000E+00     -0.70000000E+01
      0.18640000E+02      0.00000000E+00     -0.80000000E+01
      0.18640000E+02      0.00000000E+00     -0.90000000E+01
      0.18640000E+02      0.00000000E+00     -0.10000000E+02
      0.18640000E+02      0.00000000E+00     -0.11000000E+02
      0.18640000E+02      0.00000000E+00     -0.12000000E+02
      0.18640000E+02      0.00000000E+00     -0.13000000E+02
      0.18640000E+02      0.00000000E+00     -0.14000000E+02
      0.18640000E+02      0.00000000E+00     -0.15000000E+02
      0.18640000E+02      0.00000000E+00     -0.16000000E+02
      0.18640000E+02      0.00000000E+00     -0.17000000E+02
      0.18640000E+02      0.00000000E+00     -0.18000000E+02
      0.18640000E+02      0.00000000E+00     -0.19000000E+02
      0.18640000E+02      0.00000000E+00     -0.20000000E+02
      0.18640000E+02      0.00000000E+00     -0.21000000E+02
      0.18640000E+02      0.00000000E+00     -0.22000000E+02
      0.18640000E+02      0.00000000E+00     -0.23000000E+02
      0.18640000E+02      0.00000000E+00     -0.24000000E+02
      0.18640000E+02      0.00000000E+00     -0.25000000E+02
     -0.51140522E+00      0.71588023E+01     -0.20000000E+01
     -0.49593660E+00      0.60927425E+01     -0.20000000E+01
      0.41797281E+00      0.66361707E+01     -0.20000000E+01
      0.43302881E+00      0.55428034E+01     -0.20000000E+01
      0.13561809E+01      0.61090631E+01     -0.20000000E+01
      0.13734931E+01      0.50157223E+01     -0.20000000E+01
      0.22946745E+01      0.55837861E+01     -0.20000000E+01
      0.23105556E+01      0.45126988E+01     -0.20000000E+01
      0.32265139E+01      0.50650006E+01     -0.20000000E+01
      0.32146856E+01      0.61321849E+01     -0.20000000E+01
      0.41392408E+01      0.56152676E+01     -0.20000000E+01
      0.41270756E+01      0.66752199E+01     -0.20000000E+01
      0.50462507E+01      0.61598431E+01     -0.20000000E+01
      0.50297219E+01      0.72122270E+01     -0.20000000E+01
      0.59521252E+01      0.67000404E+01     -0.20000000E+01
      0.59630340E+01      0.56527579E+01     -0.20000000E+01
      0.68728908E+01      0.61848904E+01     -0.20000000E+01
      0.68806275E+01      0.51415218E+01     -0.20000000E+01
      0.77829501E+01      0.56725643E+01     -0.20000000E+01
      0.77944939E+01      0.46334428E+01     -0.20000000E+01
      0.86893990E+01      0.51697938E+01     -0.20000000E+01
      0.86832209E+01      0.62039514E+01     -0.20000000E+01
      0.95803132E+01      0.57034205E+01     -0.20000000E+01
      0.96043383E+01      0.46763211E+01     -0.20000000E+01
      0.10484532E+02      0.52092251E+01     -0.20000000E+01
      0.10462370E+02      0.62354564E+01     -0.20000000E+01
      0.11361191E+02      0.57398163E+01     -0.20000000E+01
      0.11385157E+02      0.47172493E+01     -0.20000000E+01
      0.12269868E+02      0.52491723E+01     -0.20000000E+01
      0.12234766E+02      0.62715667E+01     -0.20000000E+01
      0.13145121E+02      0.57852105E+01     -0.20000000E+01
      0.13105170E+02      0.67981838E+01     -0.20000000E+01
      0.13996842E+02      0.63084968E+01     -0.20000000E+01
      0.13974063E+02      0.73252275E+01     -0.20000000E+01
      0.14866600E+02      0.68365691E+01     -0.20000000E+01
      0.14844683E+02      0.78553010E+01     -0.20000000E+01
      0.15738493E+02      0.73655798E+01     -0.20000000E+01
      0.15717492E+02      0.83861582E+01     -0.20000000E+01
      0.16611680E+02      0.78942206E+01     -0.20000000E+01
      0.16592536E+02      0.89174787E+01     -0.20000000E+01
      0.17469384E+02      0.84568878E+01     -0.20000000E+01
      0.17466436E+02      0.94547743E+01     -0.20000000E+01
[...]
POINT_DATA      6291
CELL_DATA     33106
SCALARS Resistivity(ohm.m) double 1
LOOKUP_TABLE default
           107.75620           275.54206           143.39598            32.24995           248.26390           357.82260           200.79882            15.44544            51.52648           362.14754           113.05973            48.67124            12.70155             8.43406           116.36881            54.37041           117.41604           164.05146           256.36466            55.34227           300.16255            19.71629           387.12527            88.76657           429.24001            43.07120            24.79356           144.47044            43.67576            12.81270            61.51479           102.23865            78.23550            45.44322            57.94448           145.27672            64.10439            65.32926            85.03410            28.47464           238.72711            56.22131            63.39429           103.20709            96.18901           164.68334           250.99671            28.44723            67.27132           116.93001            12.89484           137.78210            98.26654           107.32042           204.39682            16.75810           238.74885           208.50438           197.69955           603.30568           112.08748           183.04958            40.42364            79.53177             4.21154            52.32186            76.67911            56.94742            87.91548            97.28916           475.52453           140.89136            41.04922           101.45069            17.76869            26.08697           203.84746           251.88617            27.95259            32.18982            50.05242            56.10831            16.56762            59.72763           458.25350           101.08321           256.02022           157.25011           209.27179           303.60171            31.89986            81.83117           150.14527           130.55629           101.47564            78.67138           392.78430            48.74400            65.56350            76.18203            61.90244            59.38129           218.87269            55.99713            22.21076           452.86002            62.29998            78.82317           196.91821           636.18876            73.56952            68.89225            83.64149            22.20380           203.14184            70.55735            78.61190            90.13543            28.70298            98.78952            18.09616            21.27083            38.92746            80.10712           127.53214           150.21515           108.37393            39.64884            82.70597            47.55078             8.14949           132.65497            80.83997           160.03509           173.98840            68.88707           171.21363            51.77566           124.70242           110.00079            85.39768            24.36674           132.68986            74.83161           193.45519           186.21815           220.79623            56.29438           105.61929            19.26060            69.28846           106.50384            63.65606           100.66626            72.32361            51.26351            74.97295           592.23018           142.36535            20.74693           218.27060           184.48261           220.21926           318.46224           340.09810           197.20347           182.07739           207.38132           121.10002           144.10903            45.72255           155.80340           161.96199           128.38272            45.76183           253.72279            37.40838            87.54901           162.34085            72.09470            59.07211            38.11029           157.01360           159.10683           119.22991            29.96775           172.26201           152.04255            17.13601            57.93619            54.58069            76.30722           200.60361            52.55780            45.76201            28.92732           298.75450            22.91813           228.40602            45.35646           118.54341            38.37982            20.68583            22.82678           181.45250           178.81946            21.51726            81.30062            49.37632            52.23800           343.49148            45.66425           141.55717           162.07756           123.98606           362.71585            84.79993            75.68997            64.30092            83.26168           134.71518           142.81225           107.13386            59.60034           286.84020            47.22019            26.45813           316.51782            27.13972            55.43560            42.69871            56.38504           134.24557            15.02874           106.23478            98.47018            66.05580            63.01748            76.48970            12.81600            79.69408           102.19292            67.17962            34.57848           125.20011            79.02611            55.96728           213.18708            52.81181           303.87129           157.02327            29.11364           111.22018            75.91927            95.86730           122.75673           102.09614            21.39593            70.98383            61.02424           114.70240            28.78109           119.77897           103.91014            55.93404            50.14034           281.88425            81.83413           130.42927            92.21494           109.18080            67.15008            21.11303            32.35694           540.72471           161.35572            14.96441            71.83913            41.92082            42.06866           522.32246            25.16370            70.96091           406.50866           218.77455            49.35624            65.97628            66.41702           260.29589           213.21070           114.00888           275.90830           146.89436           237.83144            73.58222           102.49532            18.10960            42.49589           526.48009            17.28748            69.15725            17.92749            15.55193            63.64879           238.28517           104.62675            64.07285            72.84623            42.06838           128.00326           622.31619           106.12420           119.19262            69.56691           102.51955           461.38598          2022.62950           125.60738            60.84665           364.03188           300.02522            22.61016           175.06520           175.79829           220.18975           123.96942            32.16270           222.19190           115.95660            66.96074           104.87969          2401.98455            25.50071           135.35779           395.65271           157.93277           292.23441            66.55342            38.65665           146.85982            74.81212            83.79589            99.62059           164.62482           382.26061           148.13958           115.28016            49.12917            91.76508            47.21581            83.63742           138.43945           440.05697            33.85043            20.33483            40.56932            35.76389            30.83692           163.60834            63.42464            55.97366            45.97875            24.73984            44.79821           227.51919           368.32179           149.20493            92.33579            73.43109            43.03990            96.51031           138.85306            64.00322           105.99820           129.39935            43.50591            72.90666            89.57301            59.49344            64.82078            82.91014            35.97554            55.87695            17.94125            24.32995            52.72673            57.37344            49.21340           161.55814            66.16079            13.18641           126.57307            84.73337            17.62165           249.68125           104.80563            37.69847           121.98436            77.35760            62.05524           133.27458            90.98993            60.55470           211.20941           255.45996           146.26538            52.11617           203.15293            21.62270           452.37346            39.92398            58.19330           169.33711           128.55052           217.64763            63.49112           138.44719            34.42689            67.68846           273.05923           114.18433            25.63627            40.47071           451.98042           105.85853            76.57709           231.06139           380.01861            25.23559           142.47439           124.47119            45.64092            34.58316           237.69767            72.01716           112.94546            28.64943           168.38888           140.08049           143.33971           169.60508           121.48410            93.69983            49.78597            32.35256            82.62401            73.00995           104.80520           120.76355            52.89345             5.38821            27.21648           444.45675           132.99395            67.47457           248.11806           173.18899            89.44599           114.44209           252.26419           311.26636            28.04987           145.59986            63.14535           116.37587            83.78995            32.05653            85.80519            53.42829            77.60618           100.65336            73.03346           136.56310            54.68731           121.22695           319.03690            61.50369            53.01856            60.89817            39.71572           110.35586            57.37442           129.38625           156.68169            84.77473           115.22948           270.92420           247.20962            53.28279           118.20101            74.39368           128.60265           150.45760            30.21977           165.18543            74.35767            12.83436            20.19504           120.19172            31.46140           244.15652            76.69797            52.62299           156.71359            96.90569           104.28381            18.06209           445.30592           126.26980            23.19183            73.61809            92.64987            48.12044           172.58119            57.25513            78.48417            94.55163            17.53076            49.29409           316.09364           124.35507            77.02393            97.30278           165.00737            34.86087            75.30531            69.43023           100.52223           170.39538            37.23263            49.25237           201.79239           269.04918           156.56345           135.40879           175.91010           139.93215           151.35330            44.17561          1086.38550           187.54192           166.95674            24.69566           137.24735            76.80500           103.68867           344.93209            29.91371            32.30001           345.09586           206.81015           327.51595           138.57026           711.73740           117.47336            40.54087            67.84395           198.98774            36.90402            86.88047            88.14519           466.27274            44.40944           123.62853           377.55651           126.13976            34.59398           207.97995            17.04689            30.48941            98.84018           324.81409           151.85541            48.68092           176.28839            55.47685           140.90511           148.09308           131.48165            80.65318           415.57975           258.37924           143.71199            46.26585           175.17750            58.34425           128.02549            36.40985           197.34096           126.55171            65.47304           244.87111            51.43717           213.21075           131.84259            33.00643           147.83755            42.74618            71.86389            36.46801           120.68617            47.39706           110.96085            19.35309           121.34529            60.24828            25.51814            62.83785            27.95050           175.29908            95.62357           316.99090            91.51559            89.06686            27.75416            32.82110           427.99279           260.25831           128.69754            66.15588            78.22551            59.71274           116.85712            64.96321           159.28020           114.19460           292.59554           229.33040           159.18343           139.20511            69.26281            33.49622           100.31252            71.42061           200.39109            29.55482            16.17465           107.95137            49.93421            88.96784           145.78184            53.59507           100.75712           132.07100            33.76129           108.84897            12.46389           112.95019            30.48135            41.36169           324.69036            53.12788           688.57437            17.58885           152.16281            49.29266           302.17798           113.36505           116.21931            75.01000            38.00870            64.35655            95.42726            71.26497           106.71319            18.90609            17.60730           171.15828            22.80086            58.23026            22.68888            14.51385            15.83303            53.51329           274.44474            45.42945            77.76466            20.78202            59.94225            20.37317            46.55241           116.36540           125.04958           258.48252            25.03817            97.24447            27.26114            44.94631           208.27782           121.26048           454.52177           135.48323           205.38604           232.89409            25.64947           232.19465           213.08470            48.99333           388.21892           181.33202            71.56280           273.39384           124.67791           151.04174           576.35925            41.13166            52.21685            26.78390            35.14335            35.48073            29.59982            74.29997           130.73257           263.81500           107.50624           688.17814           623.91674            52.37136           184.60280            26.80346           165.11159            65.23611           100.32957           115.54587            14.53462           162.86456            64.23374           100.71607           347.36873           139.13339            47.27643            73.95192            36.26012           317.55954            10.85771           171.36536            53.21618           170.86532            62.15709           193.22178            54.25950           253.20858            62.13400           144.24067            73.61222           158.57977           239.54990            53.28807            55.55904           191.46264            26.92255           130.05186           141.82487           262.72599            99.71710           182.25247            59.46493           117.16276            67.05950           178.31736            89.06005            18.87439            37.49693           118.93776            12.48436            51.83322          1484.51607            85.53344            99.14553           123.70930            76.09204            16.04232            54.57297            68.12624           238.96350           169.87140            50.97244           219.72994            62.64542            51.75174            31.86252           151.70316            25.08452           275.03841            56.78152            91.47660            78.47551            71.65049            52.79757           135.16688           231.63883           288.64062            30.47100            80.81116           446.52764            17.87646            49.99045           102.87991           180.36432           106.02647           154.52064           114.27127           114.86404            27.11386            54.99017           141.60831            43.02323           349.38144           212.38125           160.96973           107.88357           166.56268            42.60724            23.31024            93.18099           109.48800           191.94328           141.92676            20.80894            56.83100            84.02197           134.21398            68.59364           150.76112            40.37215           103.08224            63.42254            81.56818            81.07335           149.92574           175.30568           110.76397           119.49593            78.05335            60.39138            80.46423            46.46961            82.89826           181.19021           178.22351           133.31486            44.44334            30.00913            30.94839            20.29427            28.83166            93.64774            38.69430            91.07981           146.37487            59.05374           146.48118           112.57250           105.37971           284.51262           129.34373           168.32742           100.85353            71.25939            62.41973            19.97850            48.58732           131.78375            55.92536            77.10108            73.29856            66.66546            38.35785            57.87104           343.47543            43.19689            15.10158            72.09949            85.14131            74.25099           125.08369            34.57434           674.37793            39.27948            53.52615           118.46480            66.87347           127.75480            87.66422          1653.96783            80.07966           100.82057            99.40529           540.57462           363.76226            80.57738           182.52732            21.10075           140.79295           111.42980            85.93001           114.03040            46.59504           128.47887           227.87467           254.15285            19.47211            52.56449            21.02647           164.61224           108.96181           381.94327           139.72579            24.25273            35.82118            72.39601           105.99131            50.23995            32.24150           180.86087           108.78091            28.44249           366.20617           256.75678            55.88512            48.20342            43.07615            82.68966           112.20234            18.27915            99.54493            83.53492           116.76032            85.16225            44.15502           178.76306           156.28037            98.83153            57.26908            30.53865           195.15514            45.49002           188.06130           117.78175            20.92259            50.11186            60.22529           555.25870           231.55352           405.25347            37.06774           143.60859           183.85432           321.64570            72.41170            27.78777            46.92103            12.82947           165.40141           160.65328           538.83916           271.27232           292.51218            61.68554            89.78987           156.47183            75.34578            63.23809           233.95860           169.64656            44.94821            59.37462           591.55891            61.36738            36.05506            53.90330           464.61742           253.70271            20.00174            52.14790            79.76565            61.00303            38.03078            61.73071            89.37090            17.75639            32.77215           178.24413            61.66177            93.10272            59.86595           116.00138           518.34963           119.49800            69.25970           185.06233            24.53939           174.51689            25.04680            49.99140  