# vtk DataFile Version 3.0
Output from R3t
ASCII
DATASET UNSTRUCTURED_GRID
POINTS       6291 double
      0.00000000E+00      0.98900000E+01     -0.25000000E+02
      0.00000000E+00      0.98900000E+01     -0.24000000E+02
      0.00000000E+00      0.98900000E+01     -0.23000000E+02
      0.00000000E+00      0.98900000E+01     -0.22000000E+02
      0.00000000E+00      0.98900000E+01     -0.21000000E+02
      0.00000000E+00      0.98900000E+01     -0.20000000E+02
      0.00000000E+00      0.98900000E+01     -0.19000000E+02
      0.00000000E+00      0.98900000E+01     -0.18000000E+02
      0.00000000E+00      0.98900000E+01     -0.17000000E+02
      0.00000000E+00      0.98900000E+01     -0.16000000E+02
      0.00000000E+00      0.98900000E+01     -0.15000000E+02
      0.00000000E+00      0.98900000E+01     -0.14000000E+02
      0.00000000E+00      0.98900000E+01     -0.13000000E+02
      0.00000000E+00      0.98900000E+01     -0.12000000E+02
      0.00000000E+00      0.98900000E+01     -0.11000000E+02
      0.00000000E+00      0.98900000E+01     -0.10000000E+02
      0.00000000E+00      0.98900000E+01     -0.90000000E+01
      0.00000000E+00      0.98900000E+01     -0.80000000E+01
      0.00000000E+00      0.98900000E+01     -0.70000000E+01
      0.00000000E+00      0.98900000E+01     -0.60000000E+01
      0.00000000E+00      0.98900000E+01     -0.50000000E+01
      0.00000000E+00      0.98900000E+01     -0.40000000E+01
      0.00000000E+00      0.98900000E+01     -0.30000000E+01
      0.00000000E+00      0.98900000E+01     -0.20000000E+01
      0.94700000E+01      0.27090000E+02     -0.20000000E+01
      0.94700000E+01      0.27090000E+02     -0.30000000E+01
      0.94700000E+01      0.27090000E+02     -0.40000000E+01
      0.94700000E+01      0.27090000E+02     -0.50000000E+01
      0.94700000E+01      0.27090000E+02     -0.60000000E+01
      0.94700000E+01      0.27090000E+02     -0.70000000E+01
      0.94700000E+01      0.27090000E+02     -0.80000000E+01
      0.94700000E+01      0.27090000E+02     -0.90000000E+01
      0.94700000E+01      0.27090000E+02     -0.10000000E+02
      0.94700000E+01      0.27090000E+02     -0.11000000E+02
      0.94700000E+01      0.27090000E+02     -0.12000000E+02
      0.94700000E+01      0.27090000E+02     -0.13000000E+02
      0.94700000E+01      0.27090000E+02     -0.14000000E+02
      0.94700000E+01      0.27090000E+02     -0.15000000E+02
      0.94700000E+01      0.27090000E+02     -0.16000000E+02
      0.94700000E+01      0.27090000E+02     -0.17000000E+02
      0.94700000E+01      0.27090000E+02     -0.18000000E+02
      0.94700000E+01      0.27090000E+02     -0.19000000E+02
      0.94700000E+01      0.27090000E+02     -0.20000000E+02
      0.94700000E+01      0.27090000E+02     -0.21000000E+02
      0.94700000E+01      0.27090000E+02     -0.22000000E+02
      0.94700000E+01      0.27090000E+02     -0.23000000E+02
      0.94700000E+01      0.27090000E+02     -0.24000000E+02
      0.94700000E+01      0.27090000E+02     -0.25000000E+02
      0.10980000E+02      0.14860000E+02     -0.20000000E+01
      0.10980000E+02      0.14860000E+02     -0.30000000E+01
      0.10980000E+02      0.14860000E+02     -0.40000000E+01
      0.10980000E+02      0.14860000E+02     -0.50000000E+01
      0.10980000E+02      0.14860000E+02     -0.60000000E+01
      0.10980000E+02      0.14860000E+02     -0.70000000E+01
      0.10980000E+02      0.14860000E+02     -0.80000000E+01
      0.10980000E+02      0.14860000E+02     -0.90000000E+01
      0.10980000E+02      0.14860000E+02     -0.10000000E+02
      0.10980000E+02      0.14860000E+02     -0.11000000E+02
      0.10980000E+02      0.14860000E+02     -0.12000000E+02
      0.10980000E+02      0.14860000E+02     -0.13000000E+02
      0.10980000E+02      0.14860000E+02     -0.14000000E+02
      0.10980000E+02      0.14860000E+02     -0.15000000E+02
      0.10980000E+02      0.14860000E+02     -0.16000000E+02
      0.10980000E+02      0.14860000E+02     -0.17000000E+02
      0.10980000E+02      0.14860000E+02     -0.18000000E+02
      0.10980000E+02      0.14860000E+02     -0.19000000E+02
      0.10980000E+02      0.14860000E+02     -0.20000000E+02
      0.10980000E+02      0.14860000E+02     -0.21000000E+02
      0.10980000E+02      0.14860000E+02     -0.22000000E+02
      0.10980000E+02      0.14860000E+02     -0.23000000E+02
      0.10980000E+02      0.14860000E+02     -0.24000000E+02
      0.10980000E+02      0.14860000E+02     -0.25000000E+02
      0.26850000E+02      0.17850000E+02     -0.20000000E+01
      0.26850000E+02      0.17850000E+02     -0.30000000E+01
      0.26850000E+02      0.17850000E+02     -0.40000000E+01
      0.26850000E+02      0.17850000E+02     -0.50000000E+01
      0.26850000E+02      0.17850000E+02     -0.60000000E+01
      0.26850000E+02      0.17850000E+02     -0.70000000E+01
      0.26850000E+02      0.17850000E+02     -0.80000000E+01
      0.26850000E+02      0.17850000E+02     -0.90000000E+01
      0.26850000E+02      0.17850000E+02     -0.10000000E+02
      0.26850000E+02      0.17850000E+02     -0.11000000E+02
      0.26850000E+02      0.17850000E+02     -0.12000000E+02
      0.26850000E+02      0.17850000E+02     -0.13000000E+02
      0.26850000E+02      0.17850000E+02     -0.14000000E+02
      0.26850000E+02      0.17850000E+02     -0.15000000E+02
      0.26850000E+02      0.17850000E+02     -0.16000000E+02
      0.26850000E+02      0.17850000E+02     -0.17000000E+02
      0.26850000E+02      0.17850000E+02     -0.18000000E+02
      0.26850000E+02      0.17850000E+02     -0.19000000E+02
      0.26850000E+02      0.17850000E+02     -0.20000000E+02
      0.26850000E+02      0.17850000E+02     -0.21000000E+02
      0.26850000E+02      0.17850000E+02     -0.22000000E+02
      0.26850000E+02      0.17850000E+02     -0.23000000E+02
      0.26850000E+02      0.17850000E+02     -0.24000000E+02
      0.26850000E+02      0.17850000E+02     -0.25000000E+02
      0.18640000E+02      0.00000000E+00     -0.20000000E+01
      0.18640000E+02      0.00000000E+00     -0.30000000E+01
      0.18640000E+02      0.00000000E+00     -0.40000000E+01
      0.18640000E+02      0.00000000E+00     -0.50000000E+01
      0.18640000E+02      0.00000000E+00     -0.60000000E+01
      0.18640000E+02      0.00000000E+00     -0.70000000E+01
      0.18640000E+02      0.00000000E+00     -0.80000000E+01
      0.18640000E+02      0.00000000E+00     -0.90000000E+01
      0.18640000E+02      0.00000000E+00     -0.10000000E+02
      0.18640000E+02      0.00000000E+00     -0.11000000E+02
      0.18640000E+02      0.00000000E+00     -0.12000000E+02
      0.18640000E+02      0.00000000E+00     -0.13000000E+02
      0.18640000E+02      0.00000000E+00     -0.14000000E+02
      0.18640000E+02      0.00000000E+00     -0.15000000E+02
      0.18640000E+02      0.00000000E+00     -0.16000000E+02
      0.18640000E+02      0.00000000E+00     -0.17000000E+02
      0.18640000E+02      0.00000000E+00     -0.18000000E+02
      0.18640000E+02      0.00000000E+00     -0.19000000E+02
      0.18640000E+02      0.00000000E+00     -0.20000000E+02
      0.18640000E+02      0.00000000E+00     -0.21000000E+02
      0.18640000E+02      0.00000000E+00     -0.22000000E+02
      0.18640000E+02      0.00000000E+00     -0.23000000E+02
      0.18640000E+02      0.00000000E+00     -0.24000000E+02
      0.18640000E+02      0.00000000E+00     -0.25000000E+02
     -0.51140522E+00      0.71588023E+01     -0.20000000E+01
     -0.49593660E+00      0.60927425E+01     -0.20000000E+01
      0.41797281E+00      0.66361707E+01     -0.20000000E+01
      0.43302881E+00      0.55428034E+01     -0.20000000E+01
      0.13561809E+01      0.61090631E+01     -0.20000000E+01
      0.13734931E+01      0.50157223E+01     -0.20000000E+01
      0.22946745E+01      0.55837861E+01     -0.20000000E+01
      0.23105556E+01      0.45126988E+01     -0.20000000E+01
      0.32265139E+01      0.50650006E+01     -0.20000000E+01
      0.32146856E+01      0.61321849E+01     -0.20000000E+01
      0.41392408E+01      0.56152676E+01     -0.20000000E+01
      0.41270756E+01      0.66752199E+01     -0.20000000E+01
      0.50462507E+01      0.61598431E+01     -0.20000000E+01
      0.50297219E+01      0.72122270E+01     -0.20000000E+01
      0.59521252E+01      0.67000404E+01     -0.20000000E+01
      0.59630340E+01      0.56527579E+01     -0.20000000E+01
      0.68728908E+01      0.61848904E+01     -0.20000000E+01
      0.68806275E+01      0.51415218E+01     -0.20000000E+01
      0.77829501E+01      0.56725643E+01     -0.20000000E+01
      0.77944939E+01      0.46334428E+01     -0.20000000E+01
      0.86893990E+01      0.51697938E+01     -0.20000000E+01
      0.86832209E+01      0.62039514E+01     -0.20000000E+01
      0.95803132E+01      0.57034205E+01     -0.20000000E+01
      0.96043383E+01      0.46763211E+01     -0.20000000E+01
      0.10484532E+02      0.52092251E+01     -0.20000000E+01
      0.10462370E+02      0.62354564E+01     -0.20000000E+01
      0.11361191E+02      0.57398163E+01     -0.20000000E+01
      0.11385157E+02      0.47172493E+01     -0.20000000E+01
      0.12269868E+02      0.52491723E+01     -0.20000000E+01
      0.12234766E+02      0.62715667E+01     -0.20000000E+01
      0.13145121E+02      0.57852105E+01     -0.20000000E+01
      0.13105170E+02      0.67981838E+01     -0.20000000E+01
      0.13996842E+02      0.63084968E+01     -0.20000000E+01
      0.13974063E+02      0.73252275E+01     -0.20000000E+01
      0.14866600E+02      0.68365691E+01     -0.20000000E+01
      0.14844683E+02      0.78553010E+01     -0.20000000E+01
      0.15738493E+02      0.73655798E+01     -0.20000000E+01
      0.15717492E+02      0.83861582E+01     -0.20000000E+01
      0.16611680E+02      0.78942206E+01     -0.20000000E+01
      0.16592536E+02      0.89174787E+01     -0.20000000E+01
      0.17469384E+02      0.84568878E+01     -0.20000000E+01
      0.17466436E+02      0.94547743E+01     -0.20000000E+01
[...]
POINT_DATA      6291
CELL_DATA     33106
SCALARS Resistivity(ohm.m) double 1
LOOKUP_TABLE default
           108.70381           274.70883           142.27400            32.42921           241.68817           359.90270           204.03627            15.74281            50.82122           362.75101           114.19881            48.81509            12.99791             8.68319           118.83804            54.40480           116.72544           165.23902           256.58430            54.30994           309.50097            19.73937           346.97822            89.33962           440.12978            42.95867            24.09902           139.92211            43.69431            13.20209            60.66548           103.03058            79.94517            45.84630            56.89504           141.66113            62.94870            65.73768            84.39369            27.47783           248.85037            55.87804            64.51520           102.87685            96.49950           161.38957           244.88275            27.50273            67.85074           116.29550            13.34918           136.40359            97.75974           107.62575           208.71493            17.20979           238.46967           214.73737           202.79545           586.90430           112.09565           175.75804            40.88615            80.22531             4.35753            51.57447            76.11952            58.73219            89.34533            97.32310           485.25304           139.89527            41.42424           101.93090            23.45023            26.33292           206.94755           254.20645            27.42631            30.96516            50.54179            56.35561            16.39211            61.36248           389.61527           101.45665           250.25958           154.65732           206.73344           301.70733            31.98713            84.96406           149.32688           123.42750            99.97110            76.21614           336.04020            49.48261            64.11141            76.56102            61.62814            57.86825           220.43838            56.08260            22.26642           466.63030            64.01304            77.03828           203.00613           618.53910            71.00930            69.10321            83.60208            22.24319           199.44645            71.18040            79.30315            92.78141            28.38319            98.14928            17.68478            21.21674            42.62943            81.26442           113.15327           149.91568           113.09707            40.19733            83.63939            47.90619             8.45513           132.01853            82.40959           161.65577           173.49013            68.16694           167.48913            53.97761           122.64190           109.36786            85.96037            23.79682           126.33789            74.62509           189.45110           183.96191           196.65450            56.11596           103.05813            19.39474            69.52388           111.41013            62.72861           101.31068            69.25830            52.05333            74.82129           506.95531           141.21768            20.82313           218.53270           181.38055           240.57214           327.17116           341.49116           197.55684           175.98747           207.64710           124.77735           153.12296            49.02605           157.60928           160.12342           124.92147            45.68085           246.02160            37.34729            87.47425           161.90965            72.17379            59.50105            38.54875           158.95355           160.86467           114.61558            29.62494           169.93277           149.35324            16.87799            58.16043            55.27349            77.03181           200.11139            54.41153            45.95140            29.06723           304.20464            22.50614           232.88575            45.46369           118.91995            38.30262            20.75960            22.94508           181.05064           167.48790            21.67046            80.83895            49.72868            52.53074           336.99257            45.66084           141.11277           167.99937           126.57696           364.88143            84.82502            76.71207            64.60005            81.64995           131.87134           144.55280           106.40834            60.22498           274.38372            47.12006            25.94411           327.09413            27.26784            54.58793            42.69022            58.45612           134.85801            19.67922           106.32369            99.30008            66.40195            61.84779            75.01613            13.15447            80.33468           103.21487            66.56998            35.00917           130.92603            80.46721            53.67893           219.58593            53.40811           301.40952           152.11992            27.97583           115.14698            76.55423            94.05078           130.23159           101.96679            21.12452            71.28536            60.97424           114.62564            28.96347           120.98947           104.59112            54.94718            49.48343           272.17430            81.37283           129.40114            91.58840           112.59886            65.38185            19.89322            32.73261           542.97514           162.15458            15.36267            72.01889            41.83388            42.02230           523.24545            25.29982            68.86526           401.35083           217.90015            48.84617            66.87096            61.19887           253.73179           219.13479           114.25567           266.69605           145.43841           228.60672            86.15921           102.47068            18.45873            42.97089           532.91491            17.71292            67.53465            17.97905            15.88487            64.14828           233.62772           101.76201            60.36165            73.42273            42.27068           126.92856           583.58836           106.34276           118.16557            69.24315           101.66538           420.88018          1995.79577           124.43954            61.43457           372.41850           293.17307            21.34840           176.00194           175.29770           211.84798           122.93788            32.39842           216.12570           118.02161            65.65853           102.95587          2378.31301            24.88862           135.83304           405.38578           152.50999           291.79268            67.15047            39.20593           153.23788            76.71677            85.22691            99.18361           166.20348           385.57563           150.84061           113.82301            49.15924            92.06868            47.23432            82.54698           137.80789           381.03622            34.16926            20.98683            40.59464            35.92506            30.50490           166.17045            70.76139            55.28390            45.56944            24.96214            45.40768           229.09925           388.10812           135.31033            94.15343            74.66288            42.99269            97.45471           138.82377            63.81809           107.32185           118.49009            43.54320            73.03873            87.75072            58.88422            65.43874            82.56387            36.11861            55.49366            17.77591            23.00162            56.41708            57.03977            49.30132           161.99852            70.77338            12.74523           132.12626            83.95244            17.90568           247.75426           104.51415            40.34331           123.06391            77.64862            61.90905           131.76221            90.51558            61.06522           205.93919           245.07734           143.72550            50.58337           205.63420            21.03018           436.03938            40.05878            57.95950           175.81123           103.61719           216.83415            62.88472           140.84680            34.92825            67.77098           280.38305           115.31290            25.39453            40.79305           402.04483           105.65997            77.82845           230.34355           377.33637            25.37080           141.20008           126.08223            46.22380            34.32840           233.04487            69.90941           113.64814            27.90032           170.47346           139.72146           142.44141           171.64929           122.59640            90.68404            49.90745            32.48167            82.61314            79.43260           104.73930           122.14709            52.94925             5.61125            27.20894           460.16973           130.29376            66.63580           247.57314           175.72716            89.76351           115.93520           236.75603           313.42753            27.75703           146.13734            63.27416           116.18093            81.92971            32.11702            85.99628            53.33863            77.23298           100.15860            72.97129           139.53923            55.31219           122.57500           260.30705            61.67719            50.33982            58.79809            39.85228           118.83668            59.70604           133.48538           152.52114            86.65174           113.35641           263.71370           247.18966            51.86050           115.66720            73.31214           123.42937           152.54871            30.37809           160.82351            74.41020            13.22733            20.25164           121.15482            31.76721           240.70067            78.49374            54.09158           158.61313            96.54802           104.05152            18.34243           438.54818           125.65931            22.50225            74.14523            93.43750            48.19768           169.21231            59.93879            76.50343            94.12983            18.08723            49.79546           319.16718           129.87564            77.38891            97.77986           167.25942            35.13858            75.89313            69.68151           100.25378           151.19883            38.32947            49.61846           204.91489           254.45671           157.65893           134.49948           174.78547           148.14440           151.92030            42.89474          1087.26277           187.59693           175.69826            23.74348           141.21739            78.19169           101.69528           343.82703            29.52404            32.57615           316.09218           204.68333           329.69817           136.58955           744.17037           111.85488            40.41381            68.78438           197.01711            40.07176            87.27705            89.29378           434.91572            45.27397           107.06342           382.17513           125.60138            34.70472           213.31757            17.28019            30.65735           103.64994           327.25956           148.07535            49.35689           173.15442            55.92095           154.58032           149.46805           109.87624            90.53254           385.13855           298.23289           140.67679            46.58748           171.32467            59.64769           128.43687            36.65968           207.59430           126.53337            64.24785           251.10232            52.27422           227.14680           132.29580            32.68412           149.60677            42.72378            56.05325            36.44174           120.75578            47.68346           108.05751            19.50541           108.48112            60.59326            25.38364            63.79804            26.84278           175.64767            94.95476           308.70503            90.53299            88.66658            27.41697            32.96019           434.21201           253.79801           123.19475            66.19946            75.85370            58.73924           115.84093            65.57427           163.06009           114.05064           287.72299           228.26563           161.09736           124.93208            68.45856            34.04962           100.55883            68.67975           195.40776            29.01286            16.53730           109.07674            50.23488            85.05090           143.69218            54.21679            98.16617           133.22838            33.91685           109.47617            12.30084           110.83739            29.52965            39.73863           329.98782            53.33306           656.13402            16.17929           149.27300            49.39306           309.14571           111.63745           111.42130            76.15694            37.82572            64.51603            93.75353            71.14655           106.52948            19.02046            17.84775           171.73415            22.52161            57.02252            22.72447            14.43765            16.09453            53.51423           249.39463            50.45395            78.39753            20.37215            60.18010            20.53344            51.19658           116.49525           127.30656           233.92348            24.12942            97.12116            27.47131            45.62407           177.30805           125.45776           410.36245           135.31850           210.59161           225.86509            25.59568           231.57584           214.57982            48.95693           379.02044           169.14651            73.04293           269.30736           125.31623           141.09100           583.66250            41.19475            53.08476            26.93656            35.20712            35.91046            29.11350            74.09471           128.80694           259.73612           108.03587           700.31735           584.38675            51.87236           186.13200            26.83532           171.55074            66.11079           105.93012           123.46653            14.73370           165.40442            65.27978           102.06756           332.12141           143.07769            47.98776            72.41313            36.24021           321.70390            11.13455           171.26762            53.05626           169.89196            63.59529           198.03850            52.88760           246.82508            62.36665           143.01174            73.63444           154.64978           245.53651            52.42845            56.34312           185.48828            27.00647           133.38741           142.86218           254.43885           108.83206           175.80205            71.96291           109.62168            67.74661           175.57987            88.46511            18.91840            37.57311           116.16045            12.17008            52.81841          1488.23247            83.75729            69.73663           124.76416            73.94249            15.89897            53.39922            68.98789           239.27606           167.64660            51.17552           228.19501            60.28093            50.93309            32.05018           149.40630            25.39064           269.30519            56.87199            92.64566            78.51555            72.39791            52.83442           127.84889           217.99397           303.47938            30.94108            81.71684           451.88544            18.03835            49.97225           103.81650           177.87838           103.19924           156.47096           115.30617           119.44868            27.44770            55.79146           142.96883            43.03052           337.97485           210.23077           163.30837           105.90951           167.04249            42.49887            23.73669            91.45886           108.83601           199.79929           118.13248            20.95851            56.98441            84.84702           127.81674            67.14613           148.07792            40.26585            99.97385            64.25865            86.66394            81.71455           151.02386           175.66427           111.06809           108.78797            76.35912            61.81569            80.50463            47.97860            83.49151           181.20261           176.91664           132.68369            44.64985            29.72919            31.11518            19.98813            28.48590            91.73005            38.28939            91.73763           144.87753            59.12066           143.30298           112.73590           124.42692           273.38243           129.52336           172.38845           100.61226            71.09899            62.29155            20.06989            48.36785           133.90142            56.24774            76.77480            71.29300            70.44095            38.32814            58.49582           335.39181            43.60938            15.36735            71.72297            85.09593            73.43149           100.68100            34.65373           641.37846            39.26888            53.91160           122.63490            67.12663           126.39673            88.54427           637.54243            80.04281            98.47509           104.95284           609.95838           369.59556            80.30708           191.34848            26.97663           134.07339           110.95224            87.16590           114.29706            47.42654           130.90483           228.89690           259.94063            19.32715            53.03078            21.04932           165.81513           107.37792           396.30749           141.67233            24.28335            38.73860            76.94428           103.18741            48.51404            32.57984           178.58333           111.11065            28.35600           374.43691           266.20082            56.70946            48.81625            43.14022            83.90369           113.30979            18.46998           106.75062            82.46133           118.98147            84.10714            44.46706           173.73315           160.00094            97.04287            56.80972            34.80379           195.91503            46.22871           198.58020           120.41924            20.66873            48.95600            60.30036           519.57223           234.03093           407.83699            36.94692           139.79808           184.98455           323.57292            70.66718            27.39882            47.07093            12.41309           165.88558           160.46203           530.28075           267.52010           282.86436            62.20013            91.92466           138.07851           106.50566            61.59596           229.07568           169.96496            46.07409            71.45295           608.21474            60.79501            38.93724            54.28867           474.33079           256.00795            19.65130            52.06688           103.78215            61.30189            37.77646            63.58864            89.38663            18.13699            32.91357           177.93409            62.88607            94.42562            60.92017           116.36179           475.80995           114.31912            64.76080           118.79096            23.54673           166.52476            25.10612            53.11119  