# vtk DataFile Version 3.0
Output from R3t
ASCII
DATASET UNSTRUCTURED_GRID
POINTS       6291 double
      0.00000000E+00      0.98900000E+01     -0.25000000E+02
      0.00000000E+00      0.98900000E+01     -0.24000000E+02
      0.00000000E+00      0.98900000E+01     -0.23000000E+02
      0.00000000E+00      0.98900000E+01     -0.22000000E+02
      0.00000000E+00      0.98900000E+01     -0.21000000E+02
      0.00000000E+00      0.98900000E+01     -0.20000000E+02
      0.00000000E+00      0.98900000E+01     -0.19000000E+02
      0.00000000E+00      0.98900000E+01     -0.18000000E+02
      0.00000000E+00      0.98900000E+01     -0.17000000E+02
      0.00000000E+00      0.98900000E+01     -0.16000000E+02
      0.00000000E+00      0.98900000E+01     -0.15000000E+02
      0.00000000E+00      0.98900000E+01     -0.14000000E+02
      0.00000000E+00      0.98900000E+01     -0.13000000E+02
      0.00000000E+00      0.98900000E+01     -0.12000000E+02
      0.00000000E+00      0.98900000E+01     -0.11000000E+02
      0.00000000E+00      0.98900000E+01     -0.10000000E+02
      0.00000000E+00      0.98900000E+01     -0.90000000E+01
      0.00000000E+00      0.98900000E+01     -0.80000000E+01
      0.00000000E+00      0.98900000E+01     -0.70000000E+01
      0.00000000E+00      0.98900000E+01     -0.60000000E+01
      0.00000000E+00      0.98900000E+01     -0.50000000E+01
      0.00000000E+00      0.98900000E+01     -0.40000000E+01
      0.00000000E+00      0.98900000E+01     -0.30000000E+01
      0.00000000E+00      0.98900000E+01     -0.20000000E+01
      0.94700000E+01      0.27090000E+02     -0.20000000E+01
      0.94700000E+01      0.27090000E+02     -0.30000000E+01
      0.94700000E+01      0.27090000E+02     -0.40000000E+01
      0.94700000E+01      0.27090000E+02     -0.50000000E+01
      0.94700000E+01      0.27090000E+02     -0.60000000E+01
      0.94700000E+01      0.27090000E+02     -0.70000000E+01
      0.94700000E+01      0.27090000E+02     -0.80000000E+01
      0.94700000E+01      0.27090000E+02     -0.90000000E+01
      0.94700000E+01      0.27090000E+02     -0.10000000E+02
      0.94700000E+01      0.27090000E+02     -0.11000000E+02
      0.94700000E+01      0.27090000E+02     -0.12000000E+02
      0.94700000E+01      0.27090000E+02     -0.13000000E+02
      0.94700000E+01      0.27090000E+02     -0.14000000E+02
      0.94700000E+01      0.27090000E+02     -0.15000000E+02
      0.94700000E+01      0.27090000E+02     -0.16000000E+02
      0.94700000E+01      0.27090000E+02     -0.17000000E+02
      0.94700000E+01      0.27090000E+02     -0.18000000E+02
      0.94700000E+01      0.27090000E+02     -0.19000000E+02
      0.94700000E+01      0.27090000E+02     -0.20000000E+02
      0.94700000E+01      0.27090000E+02     -0.21000000E+02
      0.94700000E+01      0.27090000E+02     -0.22000000E+02
      0.94700000E+01      0.27090000E+02     -0.23000000E+02
      0.94700000E+01      0.27090000E+02     -0.24000000E+02
      0.94700000E+01      0.27090000E+02     -0.25000000E+02
      0.10980000E+02      0.14860000E+02     -0.20000000E+01
      0.10980000E+02      0.14860000E+02     -0.30000000E+01
      0.10980000E+02      0.14860000E+02     -0.40000000E+01
      0.10980000E+02      0.14860000E+02     -0.50000000E+01
      0.10980000E+02      0.14860000E+02     -0.60000000E+01
      0.10980000E+02      0.14860000E+02     -0.70000000E+01
      0.10980000E+02      0.14860000E+02     -0.80000000E+01
      0.10980000E+02      0.14860000E+02     -0.90000000E+01
      0.10980000E+02      0.14860000E+02     -0.10000000E+02
      0.10980000E+02      0.14860000E+02     -0.11000000E+02
      0.10980000E+02      0.14860000E+02     -0.12000000E+02
      0.10980000E+02      0.14860000E+02     -0.13000000E+02
      0.10980000E+02      0.14860000E+02     -0.14000000E+02
      0.10980000E+02      0.14860000E+02     -0.15000000E+02
      0.10980000E+02      0.14860000E+02     -0.16000000E+02
      0.10980000E+02      0.14860000E+02     -0.17000000E+02
      0.10980000E+02      0.14860000E+02     -0.18000000E+02
      0.10980000E+02      0.14860000E+02     -0.19000000E+02
      0.10980000E+02      0.14860000E+02     -0.20000000E+02
      0.10980000E+02      0.14860000E+02     -0.21000000E+02
      0.10980000E+02      0.14860000E+02     -0.22000000E+02
      0.10980000E+02      0.14860000E+02     -0.23000000E+02
      0.10980000E+02      0.14860000E+02     -0.24000000E+02
      0.10980000E+02      0.14860000E+02     -0.25000000E+02
      0.26850000E+02      0.17850000E+02     -0.20000000E+01
      0.26850000E+02      0.17850000E+02     -0.30000000E+01
      0.26850000E+02      0.17850000E+02     -0.40000000E+01
      0.26850000E+02      0.17850000E+02     -0.50000000E+01
      0.26850000E+02      0.17850000E+02     -0.60000000E+01
      0.26850000E+02      0.17850000E+02     -0.70000000E+01
      0.26850000E+02      0.17850000E+02     -0.80000000E+01
      0.26850000E+02      0.17850000E+02     -0.90000000E+01
      0.26850000E+02      0.17850000E+02     -0.10000000E+02
      0.26850000E+02      0.17850000E+02     -0.11000000E+02
      0.26850000E+02      0.17850000E+02     -0.12000000E+02
      0.26850000E+02      0.17850000E+02     -0.13000000E+02
      0.26850000E+02      0.17850000E+02     -0.14000000E+02
      0.26850000E+02      0.17850000E+02     -0.15000000E+02
      0.26850000E+02      0.17850000E+02     -0.16000000E+02
      0.26850000E+02      0.17850000E+02     -0.17000000E+02
      0.26850000E+02      0.17850000E+02     -0.18000000E+02
      0.26850000E+02      0.17850000E+02     -0.19000000E+02
      0.26850000E+02      0.17850000E+02     -0.20000000E+02
      0.26850000E+02      0.17850000E+02     -0.21000000E+02
      0.26850000E+02      0.17850000E+02     -0.22000000E+02
      0.26850000E+02      0.17850000E+02     -0.23000000E+02
      0.26850000E+02      0.17850000E+02     -0.24000000E+02
      0.26850000E+02      0.17850000E+02     -0.25000000E+02
      0.18640000E+02      0.00000000E+00     -0.20000000E+01
      0.18640000E+02      0.00000000E+00     -0.30000000E+01
      0.18640000E+02      0.00000000E+00     -0.40000000E+01
      0.18640000E+02      0.00000000E+00     -0.50000000E+01
      0.18640000E+02      0.00000000E+00     -0.60000000E+01
      0.18640000E+02      0.00000000E+00     -0.70000000E+01
      0.18640000E+02      0.00000000E+00     -0.80000000E+01
      0.18640000E+02      0.00000000E+00     -0.90000000E+01
      0.18640000E+02      0.00000000E+00     -0.10000000E+02
      0.18640000E+02      0.00000000E+00     -0.11000000E+02
      0.18640000E+02      0.00000000E+00     -0.12000000E+02
      0.18640000E+02      0.00000000E+00     -0.13000000E+02
      0.18640000E+02      0.00000000E+00     -0.14000000E+02
      0.18640000E+02      0.00000000E+00     -0.15000000E+02
      0.18640000E+02      0.00000000E+00     -0.16000000E+02
      0.18640000E+02      0.00000000E+00     -0.17000000E+02
      0.18640000E+02      0.00000000E+00     -0.18000000E+02
      0.18640000E+02      0.00000000E+00     -0.19000000E+02
      0.18640000E+02      0.00000000E+00     -0.20000000E+02
      0.18640000E+02      0.00000000E+00     -0.21000000E+02
      0.18640000E+02      0.00000000E+00     -0.22000000E+02
      0.18640000E+02      0.00000000E+00     -0.23000000E+02
      0.18640000E+02      0.00000000E+00     -0.24000000E+02
      0.18640000E+02      0.00000000E+00     -0.25000000E+02
     -0.51140522E+00      0.71588023E+01     -0.20000000E+01
     -0.49593660E+00      0.60927425E+01     -0.20000000E+01
      0.41797281E+00      0.66361707E+01     -0.20000000E+01
      0.43302881E+00      0.55428034E+01     -0.20000000E+01
      0.13561809E+01      0.61090631E+01     -0.20000000E+01
      0.13734931E+01      0.50157223E+01     -0.20000000E+01
      0.22946745E+01      0.55837861E+01     -0.20000000E+01
      0.23105556E+01      0.45126988E+01     -0.20000000E+01
      0.32265139E+01      0.50650006E+01     -0.20000000E+01
      0.32146856E+01      0.61321849E+01     -0.20000000E+01
      0.41392408E+01      0.56152676E+01     -0.20000000E+01
      0.41270756E+01      0.66752199E+01     -0.20000000E+01
      0.50462507E+01      0.61598431E+01     -0.20000000E+01
      0.50297219E+01      0.72122270E+01     -0.20000000E+01
      0.59521252E+01      0.67000404E+01     -0.20000000E+01
      0.59630340E+01      0.56527579E+01     -0.20000000E+01
      0.68728908E+01      0.61848904E+01     -0.20000000E+01
      0.68806275E+01      0.51415218E+01     -0.20000000E+01
      0.77829501E+01      0.56725643E+01     -0.20000000E+01
      0.77944939E+01      0.46334428E+01     -0.20000000E+01
      0.86893990E+01      0.51697938E+01     -0.20000000E+01
      0.86832209E+01      0.62039514E+01     -0.20000000E+01
      0.95803132E+01      0.57034205E+01     -0.20000000E+01
      0.96043383E+01      0.46763211E+01     -0.20000000E+01
      0.10484532E+02      0.52092251E+01     -0.20000000E+01
      0.10462370E+02      0.62354564E+01     -0.20000000E+01
      0.11361191E+02      0.57398163E+01     -0.20000000E+01
      0.11385157E+02      0.47172493E+01     -0.20000000E+01
      0.12269868E+02      0.52491723E+01     -0.20000000E+01
      0.12234766E+02      0.62715667E+01     -0.20000000E+01
      0.13145121E+02      0.57852105E+01     -0.20000000E+01
      0.13105170E+02      0.67981838E+01     -0.20000000E+01
      0.13996842E+02      0.63084968E+01     -0.20000000E+01
      0.13974063E+02      0.73252275E+01     -0.20000000E+01
      0.14866600E+02      0.68365691E+01     -0.20000000E+01
      0.14844683E+02      0.78553010E+01     -0.20000000E+01
      0.15738493E+02      0.73655798E+01     -0.20000000E+01
      0.15717492E+02      0.83861582E+01     -0.20000000E+01
      0.16611680E+02      0.78942206E+01     -0.20000000E+01
      0.16592536E+02      0.89174787E+01     -0.20000000E+01
      0.17469384E+02      0.84568878E+01     -0.20000000E+01
      0.17466436E+02      0.94547743E+01     -0.20000000E+01
[...]
POINT_DATA      6291
CELL_DATA     33106
SCALARS Resistivity(ohm.m) double 1
LOOKUP_TABLE default
           108.79457           269.37924           134.99715            32.92777           249.44985           353.82020           218.63117            15.65506            52.31061           356.32212           111.61600            49.48770            12.77952             8.57506           121.55776            56.02078           117.49776           164.09338           257.47142            53.63905           308.49526            19.94845           312.72877            88.55420           418.08875            43.47845            23.89660           135.71003            43.97964            12.90113            61.80819           103.56405            79.59262            47.79743            57.00288           137.95312            64.16424            66.21982            84.90562            26.96062           249.92754            53.83115            64.73262           103.16469            97.83817           160.46471           237.58612            26.92079            67.87259           115.16590            12.99961           137.59716            96.21348           109.35397           213.69259            17.74981           233.81459           222.46291           212.89241           614.32689           112.14301           182.74630            42.54162            82.48835             4.37059            51.91358            77.91829            61.67152            87.14846            97.75963           455.19208           139.52303            41.84692           102.17073            27.09147            26.77545           204.85455           251.17257            26.62745            30.20872            50.03898            56.90619            16.19917            59.62527           338.77270           101.96116           245.43912           148.15110           204.73787           297.00280            32.17615            85.21694           148.96316           112.82430           100.36548            75.50932           297.36479            50.67440            64.14439            76.29598            61.79725            59.17740           230.85593            55.80424            22.47769           447.09064            64.71153            76.45221           198.02597           618.23088            68.47412            69.65737            83.41999            22.03390           197.65494            71.48494            78.98690            91.90589            27.55916            97.81876            17.92030            21.21918            45.17372            81.62595           107.85437           149.12681           113.05548            41.97501            83.02130            49.80385             8.39123           133.07026            82.77865           163.53897           177.02555            73.19582           162.42289            55.80175           121.04662           110.24100            87.66381            23.72194           137.24009            75.93533           190.73816           182.93191           174.87071            57.28151           101.42828            20.01378            69.03576           110.12002            62.96873           100.48424            67.03210            52.73573            74.20071           443.64771           139.67011            20.61671           210.05776           171.90639           235.92536           316.93012           334.52696           197.87090           158.02835           205.18440           140.91154           156.55267            50.84724           160.87957           156.24533           129.89725            46.38173           236.97975            37.90487            88.11755           161.16932            71.89162            59.05269            38.75379           156.28906           161.68414           113.99168            29.61356           171.92044           148.83423            17.18055            58.63708            54.72547            74.44927           197.87047            56.38941            46.39555            29.63814           301.48589            21.90000           227.72766            46.04333           117.78131            38.92545            21.42696            22.70506           181.00778           182.88594            21.41141            81.03734            49.25774            52.26970           334.17500            45.79647           137.90531           166.40161           124.10746           365.18710            84.54538            78.24495            64.18497            81.38804           128.82940           146.43171           107.96005            59.70552           265.43030            47.06582            25.93715           318.60806            27.38850            54.76027            43.03712            60.84596           131.55619            22.66492           105.54259            99.02487            66.12308            62.10661            74.47572            12.95847            80.30160           103.77689            66.75649            36.46795           130.34753            79.94249            54.99238           228.66131            54.35285           302.98771           151.62289            27.15402           122.03288            75.73415            96.23875           131.54191           101.82911            20.80556            71.02644            61.50251           112.17189            29.53807           120.26751           104.41900            56.87090            49.74791           270.59606            83.45959           129.43826            92.25264           114.25719            65.72726            20.51907            32.72401           525.98941           162.01517            15.49462            71.39808            42.44664            42.54354           506.48232            26.34037            69.97378           399.62235           215.09443            48.58238            66.57027            58.56416           243.07187           220.11438           113.18026           259.16655           145.23603           217.79523            97.40677           101.05130            18.77819            42.90217           519.53140            17.85125            66.55334            18.12135            16.30947            68.93153           241.33674           100.30128            60.99814            76.76757            42.81095           125.24030           545.46772           104.77274           115.63812            70.62950           102.26779           390.88675          2041.08987           120.29717            60.74388           366.18028           295.23410            21.99073           166.97418           174.45567           217.50210           122.49822            32.57063           208.39472           118.01713            66.25553           103.10114          2378.68303            24.71105           136.45799           388.36393           140.59210           292.13743            67.27511            39.33244           155.13869            76.08991            87.14674           100.16383           163.19930           379.06844           147.77825           115.06043            49.61083            92.81435            48.29221            82.70390           133.10330           336.29014            34.27823            22.40353            40.85941            36.00162            30.40733           160.33787            76.63820            54.82008            47.34788            25.74219            46.35736           230.11154           414.06528           124.40407            94.87701            75.65780            43.01250            96.92440           138.57208            63.41815           108.67423           107.88297            43.35115            73.79471            87.12770            59.11600            64.31331            83.77399            36.69318            55.30723            18.51758            21.78975            58.57346            59.12079            50.34786           160.85320            74.31883            13.24299           131.45180            84.59781            18.20585           247.77983           104.55991            42.23556           123.56814            77.17340            61.23973           131.27701            91.21663            60.92819           202.77698           250.90386           143.17692            50.05260           216.49157            20.89104           420.26084            40.11503            61.09622           180.97506            93.89186           215.59089            63.13803           144.95705            34.88822            68.01073           278.30012           114.63766            26.94216            40.71498           367.85836           104.71437            78.31110           228.63264           377.27572            25.12157           142.47508           125.26959            46.12868            35.96350           184.32199            69.29122           114.01179            27.80316           168.54150           135.48299           139.88453           182.60325           123.00702            90.14879            51.02470            33.55824            82.19244            82.91421           104.67135           123.11610            53.10126             5.60208            27.35232           474.69721           121.90002            66.82624           248.59561           175.53505            89.92319           121.48425           217.11582           306.63946            27.70652           145.97740            62.53687           114.70904            80.87730            32.23868            86.50578            53.24436            75.86795            99.40526            73.45042           142.28013            55.87359           123.15901           229.77334            61.86562            49.92810            57.99391            40.56075           125.01056            60.73273           136.36946           148.41655            91.83303           112.41924           255.68236           248.81237            52.85798           111.14975            73.45875           119.52523           154.10974            31.29677           159.53468            74.57309            12.93388            20.66066           121.62269            32.51461           231.61374            78.74518            53.03611           155.63184            97.41632           102.84696            18.68358           413.24583           123.70501            22.37476            73.75858            91.22502            48.61243           162.87483            61.48492            75.88683            94.12222            19.11066            50.24914           319.48497           132.90546            76.75792            97.29423           167.27991            36.81899            76.76349            69.61132            97.83625           142.51404            40.73497            49.93440           206.95606           235.97613           156.67716           133.59676           171.17552           149.71704           167.45713            41.92918          1024.88170           188.91221           173.08506            22.09434           144.15791            82.35272           103.54712           337.99961            28.79467            32.70441           316.58227           206.35347           325.06982           139.18127           737.13596           109.43504            40.06513            68.83404           199.34259            44.78347            87.87886            88.78052           409.41331            46.31954            99.26905           369.71027           122.36126            35.02930           218.03194            18.56090            31.17463           103.65235           322.44194           144.85022            49.66933           171.43096            55.89174           164.76277           149.98541           108.33143            98.28055           361.48689           300.95155           138.94156            47.39282           166.45040            59.99742           129.54237            37.70379           198.94975           128.19458            64.28426           251.16648            53.25653           236.66548           132.90870            32.63395           149.89727            43.26601            51.37228            37.00118           120.17810            48.14548           107.95456            20.36724           103.66668            61.38961            25.65652            64.95612            26.40251           173.03191            95.81441           299.01880            90.63187            89.07755            27.69947            32.79809           446.77133           251.01299           118.59862            66.03190            74.81364            60.71622           116.65820            64.92529           163.19017           114.15509           277.65114           226.56262           158.95526           126.58898            67.46837            36.26534           101.42925            69.39289           189.06075            28.96472            16.68384           108.98356            51.01587            82.16669           143.10188            55.13996            95.55473           131.56683            34.35603           108.85661            12.39112           112.02553            28.86422            38.30432           323.02552            53.85009           562.41733            15.84282           146.17649            50.00793           304.96070           112.19217           111.19807            78.74219            38.23321            64.73730            94.65724            71.65596           104.70311            19.26596            18.07327           170.85632            22.73008            56.83670            22.83401            14.22600            17.34440            53.28160           234.35280            54.42786            76.93117            21.15227            60.67229            21.50218            51.11513           115.82353           128.28893           223.56758            22.69342            96.22024            27.86561            46.46274           159.00807           128.29073           378.45668           135.84659           211.89577           218.75179            25.69012           223.00534           212.35669            51.95147           368.45727           187.48695            74.22204           278.35285           124.75745           139.61077           570.96055            39.98222            54.92419            28.05235            35.57631            35.97977            28.37234            78.54327           127.17720           252.84201           108.48503           679.40821           545.30757            52.31711           184.07085            26.83834           177.41000            62.79662           108.48145           125.71126            14.70765           162.37664            66.84027           100.89360           301.17692           142.68914            48.24888            74.22712            36.72000           323.53507            10.98717           167.11802            54.24297           167.00620            64.17579           201.83351            48.17127           242.01421            62.90027           140.91385            73.78210           155.38034           243.61790            52.63441            57.06670           181.55100            27.91014           136.75708           143.14488           248.45123            94.63722           171.10114            76.43421           104.46162            67.87930           174.63038            88.26369            19.03282            38.13687           121.28771            12.80780            53.98368          1375.96130            90.46263            63.18196           124.14973            73.18516            15.60873            53.11061            69.00471           238.12608           171.39547            50.97039           235.23470            56.53578            51.04217            32.04659           146.49196            25.15275           277.93555            56.85078            91.40966            78.32932            72.41975            53.07741           123.04921           204.43832           315.56061            32.35601            80.59169           440.55256            18.74294            49.16154           104.44361           174.24935           104.46104           155.61988           114.59529           119.44944            28.04055            56.30354           143.24522            43.51800           320.52853           206.68930           162.13518           104.04515           158.82012            43.17966            24.25076            89.85978           109.77862           200.66915           108.73815            21.91105            57.54871            87.07886           131.57022            67.73061           143.93033            40.23439            98.21770            64.41558            90.54030            81.39370           151.05635           171.46097           110.32733           112.24127            76.91184            65.19723            80.30030            49.46682            85.56258           179.38830           173.56362           132.43980            45.24236            29.95604            32.74419            20.51952            28.59619            93.77596            37.95990            91.43519           140.49297            60.20937           141.98548           113.08079           141.75032           261.34314           127.65223           172.51091           100.42068            72.59468            61.94278            20.25718            49.17872           138.07452            57.27896            76.47096            70.72624            69.33601            38.00381            59.44509           333.88777            43.60641            15.24415            71.90930            88.52925            74.54538            94.86589            35.13352           606.48412            39.27715            55.03218           124.27149            70.39381           120.85555            92.02676           642.75811            81.13075            97.68420           105.86314           586.36156           364.95177            80.95216           202.20531            30.67845           128.15361           112.13843            88.71301           116.07488            49.11327           136.03137           225.12617           257.91965            19.39400            52.97449            21.14740           163.27049           105.70105           403.84605           145.42416            24.65090            40.60576            82.34427           102.90690            47.00714            32.64088           175.83788           111.20651            27.70770           365.07773           266.35990            57.36656            49.72191            43.35008            82.86407           113.71040            18.63115           110.56223            84.36478           120.47331            86.25735            45.30406           173.37840           162.30037            96.13729            57.20579            35.58139           194.68108            46.59680           196.71168           121.20247            21.15329            47.90003            59.97777           505.20771           232.26699           397.86365            36.68479           138.56679           182.30829           307.26082            70.15446            26.84182            47.21328            13.58962           162.35013           160.78758           507.26706           260.58137           273.14020            63.62381            95.38162           125.45214            92.93218            61.40019           226.44573           165.71826            46.09396            73.82326           580.96461            63.68526            41.53909            55.56802           458.73657           251.90715            20.00765            52.81119           111.36904            60.92293            38.03221            64.50206            90.04098            19.26363            33.78269           175.26845            65.83801            96.10125            60.44169           118.56172           442.39945           113.79176            67.81281            94.83560            24.06372           159.95339            25.39952            56.49515  