# vtk DataFile Version 3.0
Output from R3t
ASCII
DATASET UNSTRUCTURED_GRID
POINTS       6291 double
      0.00000000E+00      0.98900000E+01     -0.25000000E+02
      0.00000000E+00      0.98900000E+01     -0.24000000E+02
      0.00000000E+00      0.98900000E+01     -0.23000000E+02
      0.00000000E+00      0.98900000E+01     -0.22000000E+02
      0.00000000E+00      0.98900000E+01     -0.21000000E+02
      0.00000000E+00      0.98900000E+01     -0.20000000E+02
      0.00000000E+00      0.98900000E+01     -0.19000000E+02
      0.00000000E+00      0.98900000E+01     -0.18000000E+02
      0.00000000E+00      0.98900000E+01     -0.17000000E+02
      0.00000000E+00      0.98900000E+01     -0.16000000E+02
      0.00000000E+00      0.98900000E+01     -0.15000000E+02
      0.00000000E+00      0.98900000E+01     -0.14000000E+02
      0.00000000E+00      0.98900000E+01     -0.13000000E+02
      0.00000000E+00      0.98900000E+01     -0.12000000E+02
      0.00000000E+00      0.98900000E+01     -0.11000000E+02
      0.00000000E+00      0.98900000E+01     -0.10000000E+02
      0.00000000E+00      0.98900000E+01     -0.90000000E+01
      0.00000000E+00      0.98900000E+01     -0.80000000E+01
      0.00000000E+00      0.98900000E+01     -0.70000000E+01
      0.00000000E+00      0.98900000E+01     -0.60000000E+01
      0.00000000E+00      0.98900000E+01     -0.50000000E+01
      0.00000000E+00      0.98900000E+01     -0.40000000E+01
      0.00000000E+00      0.98900000E+01     -0.30000000E+01
      0.00000000E+00      0.98900000E+01     -0.20000000E+01
      0.94700000E+01      0.27090000E+02     -0.20000000E+01
      0.94700000E+01      0.27090000E+02     -0.30000000E+01
      0.94700000E+01      0.27090000E+02     -0.40000000E+01
      0.94700000E+01      0.27090000E+02     -0.50000000E+01
      0.94700000E+01      0.27090000E+02     -0.60000000E+01
      0.94700000E+01      0.27090000E+02     -0.70000000E+01
      0.94700000E+01      0.27090000E+02     -0.80000000E+01
      0.94700000E+01      0.27090000E+02     -0.90000000E+01
      0.94700000E+01      0.27090000E+02     -0.10000000E+02
      0.94700000E+01      0.27090000E+02     -0.11000000E+02
      0.94700000E+01      0.27090000E+02     -0.12000000E+02
      0.94700000E+01      0.27090000E+02     -0.13000000E+02
      0.94700000E+01      0.27090000E+02     -0.14000000E+02
      0.94700000E+01      0.27090000E+02     -0.15000000E+02
      0.94700000E+01      0.27090000E+02     -0.16000000E+02
      0.94700000E+01      0.27090000E+02     -0.17000000E+02
      0.94700000E+01      0.27090000E+02     -0.18000000E+02
      0.94700000E+01      0.27090000E+02     -0.19000000E+02
      0.94700000E+01      0.27090000E+02     -0.20000000E+02
      0.94700000E+01      0.27090000E+02     -0.21000000E+02
      0.94700000E+01      0.27090000E+02     -0.22000000E+02
      0.94700000E+01      0.27090000E+02     -0.23000000E+02
      0.94700000E+01      0.27090000E+02     -0.24000000E+02
      0.94700000E+01      0.27090000E+02     -0.25000000E+02
      0.10980000E+02      0.14860000E+02     -0.20000000E+01
      0.10980000E+02      0.14860000E+02     -0.30000000E+01
      0.10980000E+02      0.14860000E+02     -0.40000000E+01
      0.10980000E+02      0.14860000E+02     -0.50000000E+01
      0.10980000E+02      0.14860000E+02     -0.60000000E+01
      0.10980000E+02      0.14860000E+02     -0.70000000E+01
      0.10980000E+02      0.14860000E+02     -0.80000000E+01
      0.10980000E+02      0.14860000E+02     -0.90000000E+01
      0.10980000E+02      0.14860000E+02     -0.10000000E+02
      0.10980000E+02      0.14860000E+02     -0.11000000E+02
      0.10980000E+02      0.14860000E+02     -0.12000000E+02
      0.10980000E+02      0.14860000E+02     -0.13000000E+02
      0.10980000E+02      0.14860000E+02     -0.14000000E+02
      0.10980000E+02      0.14860000E+02     -0.15000000E+02
      0.10980000E+02      0.14860000E+02     -0.16000000E+02
      0.10980000E+02      0.14860000E+02     -0.17000000E+02
      0.10980000E+02      0.14860000E+02     -0.18000000E+02
      0.10980000E+02      0.14860000E+02     -0.19000000E+02
      0.10980000E+02      0.14860000E+02     -0.20000000E+02
      0.10980000E+02      0.14860000E+02     -0.21000000E+02
      0.10980000E+02      0.14860000E+02     -0.22000000E+02
      0.10980000E+02      0.14860000E+02     -0.23000000E+02
      0.10980000E+02      0.14860000E+02     -0.24000000E+02
      0.10980000E+02      0.14860000E+02     -0.25000000E+02
      0.26850000E+02      0.17850000E+02     -0.20000000E+01
      0.26850000E+02      0.17850000E+02     -0.30000000E+01
      0.26850000E+02      0.17850000E+02     -0.40000000E+01
      0.26850000E+02      0.17850000E+02     -0.50000000E+01
      0.26850000E+02      0.17850000E+02     -0.60000000E+01
      0.26850000E+02      0.17850000E+02     -0.70000000E+01
      0.26850000E+02      0.17850000E+02     -0.80000000E+01
      0.26850000E+02      0.17850000E+02     -0.90000000E+01
      0.26850000E+02      0.17850000E+02     -0.10000000E+02
      0.26850000E+02      0.17850000E+02     -0.11000000E+02
      0.26850000E+02      0.17850000E+02     -0.12000000E+02
      0.26850000E+02      0.17850000E+02     -0.13000000E+02
      0.26850000E+02      0.17850000E+02     -0.14000000E+02
      0.26850000E+02      0.17850000E+02     -0.15000000E+02
      0.26850000E+02      0.17850000E+02     -0.16000000E+02
      0.26850000E+02      0.17850000E+02     -0.17000000E+02
      0.26850000E+02      0.17850000E+02     -0.18000000E+02
      0.26850000E+02      0.17850000E+02     -0.19000000E+02
      0.26850000E+02      0.17850000E+02     -0.20000000E+02
      0.26850000E+02      0.17850000E+02     -0.21000000E+02
      0.26850000E+02      0.17850000E+02     -0.22000000E+02
      0.26850000E+02      0.17850000E+02     -0.23000000E+02
      0.26850000E+02      0.17850000E+02     -0.24000000E+02
      0.26850000E+02      0.17850000E+02     -0.25000000E+02
      0.18640000E+02      0.00000000E+00     -0.20000000E+01
      0.18640000E+02      0.00000000E+00     -0.30000000E+01
      0.18640000E+02      0.00000000E+00     -0.40000000E+01
      0.18640000E+02      0.00000000E+00     -0.50000000E+01
      0.18640000E+02      0.00000000E+00     -0.60000000E+01
      0.18640000E+02      0.00000000E+00     -0.70000000E+01
      0.18640000E+02      0.00000000E+00     -0.80000000E+01
      0.18640000E+02      0.00000000E+00     -0.90000000E+01
      0.18640000E+02      0.00000000E+00     -0.10000000E+02
      0.18640000E+02      0.00000000E+00     -0.11000000E+02
      0.18640000E+02      0.00000000E+00     -0.12000000E+02
      0.18640000E+02      0.00000000E+00     -0.13000000E+02
      0.18640000E+02      0.00000000E+00     -0.14000000E+02
      0.18640000E+02      0.00000000E+00     -0.15000000E+02
      0.18640000E+02      0.00000000E+00     -0.16000000E+02
      0.18640000E+02      0.00000000E+00     -0.17000000E+02
      0.18640000E+02      0.00000000E+00     -0.18000000E+02
      0.18640000E+02      0.00000000E+00     -0.19000000E+02
      0.18640000E+02      0.00000000E+00     -0.20000000E+02
      0.18640000E+02      0.00000000E+00     -0.21000000E+02
      0.18640000E+02      0.00000000E+00     -0.22000000E+02
      0.18640000E+02      0.00000000E+00     -0.23000000E+02
      0.18640000E+02      0.00000000E+00     -0.24000000E+02
      0.18640000E+02      0.00000000E+00     -0.25000000E+02
     -0.51140522E+00      0.71588023E+01     -0.20000000E+01
     -0.49593660E+00      0.60927425E+01     -0.20000000E+01
      0.41797281E+00      0.66361707E+01     -0.20000000E+01
      0.43302881E+00      0.55428034E+01     -0.20000000E+01
      0.13561809E+01      0.61090631E+01     -0.20000000E+01
      0.13734931E+01      0.50157223E+01     -0.20000000E+01
      0.22946745E+01      0.55837861E+01     -0.20000000E+01
      0.23105556E+01      0.45126988E+01     -0.20000000E+01
      0.32265139E+01      0.50650006E+01     -0.20000000E+01
      0.32146856E+01      0.61321849E+01     -0.20000000E+01
      0.41392408E+01      0.56152676E+01     -0.20000000E+01
      0.41270756E+01      0.66752199E+01     -0.20000000E+01
      0.50462507E+01      0.61598431E+01     -0.20000000E+01
      0.50297219E+01      0.72122270E+01     -0.20000000E+01
      0.59521252E+01      0.67000404E+01     -0.20000000E+01
      0.59630340E+01      0.56527579E+01     -0.20000000E+01
      0.68728908E+01      0.61848904E+01     -0.20000000E+01
      0.68806275E+01      0.51415218E+01     -0.20000000E+01
      0.77829501E+01      0.56725643E+01     -0.20000000E+01
      0.77944939E+01      0.46334428E+01     -0.20000000E+01
      0.86893990E+01      0.51697938E+01     -0.20000000E+01
      0.86832209E+01      0.62039514E+01     -0.20000000E+01
      0.95803132E+01      0.57034205E+01     -0.20000000E+01
      0.96043383E+01      0.46763211E+01     -0.20000000E+01
      0.10484532E+02      0.52092251E+01     -0.20000000E+01
      0.10462370E+02      0.62354564E+01     -0.20000000E+01
      0.11361191E+02      0.57398163E+01     -0.20000000E+01
      0.11385157E+02      0.47172493E+01     -0.20000000E+01
      0.12269868E+02      0.52491723E+01     -0.20000000E+01
      0.12234766E+02      0.62715667E+01     -0.20000000E+01
      0.13145121E+02      0.57852105E+01     -0.20000000E+01
      0.13105170E+02      0.67981838E+01     -0.20000000E+01
      0.13996842E+02      0.63084968E+01     -0.20000000E+01
      0.13974063E+02      0.73252275E+01     -0.20000000E+01
      0.14866600E+02      0.68365691E+01     -0.20000000E+01
      0.14844683E+02      0.78553010E+01     -0.20000000E+01
      0.15738493E+02      0.73655798E+01     -0.20000000E+01
      0.15717492E+02      0.83861582E+01     -0.20000000E+01
      0.16611680E+02      0.78942206E+01     -0.20000000E+01
      0.16592536E+02      0.89174787E+01     -0.20000000E+01
      0.17469384E+02      0.84568878E+01     -0.20000000E+01
      0.17466436E+02      0.94547743E+01     -0.20000000E+01
[...]
POINT_DATA      6291
CELL_DATA     33106
SCALARS Resistivity(ohm.m) double 1
LOOKUP_TABLE default
            94.94281           185.52911           176.84145            56.41244           256.22015           268.59255           175.39307            11.77813            76.22686           271.28343           110.70485            65.43551             9.31156             5.64609            88.46993            56.25355            78.28380           160.32126           170.48506            49.86926           150.78201            27.88859           410.55362            88.78481           377.94498            55.60164            26.84246           194.00228            59.55632             9.29240            62.53613           125.06943            72.60394            56.57814            80.84353           195.52441            66.14164            77.78535            91.68483            25.37277           121.29022            44.42080            64.20511            90.02985            84.05134           127.54119           137.54429            24.89417            69.92485           147.90232            10.19978           147.80916           119.10298            86.14661           156.32643            23.12967           174.74342           169.34338           349.83735           600.20230           145.10382           269.45600            56.19900            64.38520             3.50685            69.41988            70.89757            98.82211            81.74211           133.79012           356.10398           138.38693            51.74667           125.69615            24.66346            48.08096           122.55104           225.23814            21.57396            29.07176            61.61321            75.23893            24.31626            45.03790           404.70451            99.95723            90.96218            96.66104           261.77005           194.90949            50.58596            76.85726           148.53210            90.15163           118.93129            81.74639           391.96551            63.33390            56.29352            71.14683            68.61862            60.24391           191.20084            52.07556            31.58867           374.07733            64.26662            75.08814           151.42407           477.75767           100.44373            73.67098            64.95742            26.58781           133.51442            65.57337            75.89396            96.68128            22.36723            93.80404            19.05099            26.99341            43.12406            87.17107            83.69942           131.82745            86.82826            55.65348            80.40875            55.60024             5.77173            82.88713            67.57982           214.37796           108.99618            70.65727           215.53418            52.60584            92.69946           147.05782            86.66990            28.01242           118.71601            73.06867           113.96583           241.30001           179.64627            69.82735           118.57744            22.14552            63.02376           113.19938            57.07149            99.66647            72.62093            58.07102            94.90139           437.35100           112.04019            25.66544           191.35429           205.15614           142.67823           308.05342           263.25725           143.80947           176.70768           128.90632           180.34916           128.80586            43.02676           133.09944           178.72803            91.19623            57.90369           246.34946            43.81683           113.82560           144.85125            89.94033            54.89113            40.12316           147.80405           160.52496           121.08994            27.37911           108.27296           155.78692            17.47103            78.54541            53.62074            59.65112           172.37006            78.06519            65.20531            50.87860           187.83524            18.98222           160.49740            47.28910           116.53962            43.71422            20.81504            26.49639           134.73955           188.35428            26.32705            74.06572            47.42423            50.08904           338.69555            62.84826           157.32071           136.12695           109.71659           254.80345           105.86240            89.73458            57.43181            67.79099           182.59667           138.61494            97.72090            57.32509           208.77986            67.26757            27.79970           203.20842            26.77386            80.47900            58.07852            54.30193           153.85133            24.60707            86.44822           100.65971            61.83990            54.27774            74.82745            10.01485            81.13257            98.73366            81.60318            39.00306            66.71052            81.82874            70.88390           182.91066            59.18439           191.24079           122.91499            25.28644           127.86734            72.18597            78.42887            83.21944           128.90679            19.35524            65.65026            72.50280           101.10205            49.34137            93.30015           102.61068            82.11316            68.99725           262.79390            91.38343           140.65559            69.64080           147.43750            65.55204            16.53148            37.30032           300.27322           154.78455            18.54357            91.75582            53.69564            55.05890           392.41294            29.06888            68.67062           224.07012           196.12941            51.41260            75.69890            95.82819           218.27799           155.48822            79.44490           268.37721           158.01063           132.98753           127.51977           116.98670            24.26169            43.52143           279.97937            15.13185            93.33517            25.46013            20.89081            61.85684           240.15152           126.48714            78.58729            61.60509            59.03213           154.25827           363.03492           118.05975            81.18877            86.56118           116.09585           360.87339           458.63634            82.32762            59.09003           194.57138           277.38650            18.70419           184.40894           147.09585           260.05480           134.16420            52.04634           249.34320            99.09432            63.74394           117.73351           566.92114            27.32611           137.93235           317.11420           163.16256           180.56372            61.59231            42.09009           105.72463            60.84658            99.77941            74.78861           154.66524           271.57059           131.35523            99.83581            52.93481            94.76127            46.02829            65.72491           143.66514           385.61711            34.60034            23.32736            54.97319            30.75242            28.15470           165.06235            76.37211            51.58310            50.58391            58.48333            56.05043           152.45320           298.77899           101.39988            89.73345           101.46555            60.99161            96.76982           120.58697            54.46946           159.38324            66.28946            40.51208            74.57631            70.12587            54.94810            59.88491            75.12883            44.96211            50.28692            29.23216            29.33828            69.61330            85.97987            47.97103           105.00137            87.50422            21.49077           111.24894            87.21914            24.27712           222.23367            92.46975            39.75314           134.32546            69.72951            71.11766            97.83276            71.72275            56.16157           202.86561           285.12824           151.07504            78.43915           174.55599            26.60715           301.18160            34.25140            51.50470           137.83473           157.68374           197.44916            83.02460           143.49314            38.42743            53.08108           159.15324           104.99909            30.32340            41.93162           376.78105           143.16686            78.19302           201.30438           223.39826            28.41299            93.91162           109.29054            46.57500            43.74225           196.83683            72.53963           125.78030            31.49067           196.29114           149.56682           111.35905           108.59280           127.68408            84.14669            55.14995            37.08811            98.32215            74.58333           133.09199           137.48894            70.93230             4.01939            38.20448           281.06016            91.50373            92.90994           167.76766           230.06785           109.78080            88.32499           152.62559           252.16221            24.92775           140.24823            82.86207           133.18792            81.92094            41.94765            86.69416            72.09132            94.26786           128.91914            82.78739            91.65459            63.84544           130.17171           225.44042            81.03973            60.06048            91.76607            51.86236            95.56969            79.50290            85.26108           215.43689            98.38441            95.22298           142.98817           162.15554            73.39571            81.38702            85.79325           113.07452            94.92152            34.91563           132.26370            74.49201            10.60432            19.77303           133.95370            56.34265           258.01391            74.01517            43.50046           153.25973           105.23108            70.35821            25.71210           328.72589           100.78387            27.63914            68.85565            89.67625            42.78500            99.83841            77.27376           111.78860           101.05394            19.78891            59.19322           202.10209            96.82262            68.69711            86.86281           131.16881            40.23903            56.14346            83.33951           121.03468           222.10453            72.67354            60.37219            97.96653           181.46083            92.39493            95.72189           180.03695            93.15627            98.67261            43.53311           499.87297           140.47123           164.84926            48.89090           100.89655            91.25284            88.96409           218.24279            33.08499            49.75232           293.69938           121.98259           252.19289            78.69195           217.94990           120.60179            70.82544            94.57463           119.59986            38.84530           111.81764            67.94831           345.72274            61.61969           160.98888           254.46746           113.78299            64.46216           194.86541            19.78765            38.96151            72.98695           256.60839           158.12844            52.21391           138.08495            58.43588           125.98655           154.15508           183.49425           126.96377           311.89638           285.48444           133.12943            69.04378           222.51998            62.14967           135.23324            36.30036           193.30468            93.43655            92.66025           240.30989            73.31710           176.78106           130.65425            30.22759           131.12105            52.47392            74.08432            44.40289            83.82304            48.43430           123.72704            22.30128           168.48223            79.93963            31.25222            59.15240            25.06507           173.93067            73.44492           291.23704           103.35783            86.81203           129.53463            43.00087           255.83559           163.88261           162.65058            85.54155            74.29476            56.25323            76.43958            58.32236           136.74772           156.89035           252.49033           204.50556           147.82147           105.32958            82.90505            38.94799            97.67962            70.02699           216.04738            29.28731            15.33441           108.21139            64.73436            64.22903           148.60327            68.72417            82.34080           162.39115            45.34110            96.88589            17.86809           100.67521            26.27288            41.24870           218.43678            70.39739           434.94231            77.64042           209.76037            67.31746           217.45820           110.71071           117.24066           110.96081            41.33731            83.97187           112.72861            78.57696           116.45399            26.90197            22.32161           169.60106            32.01880            62.02881            31.00630            21.67487            18.05086            60.48602           164.90293            43.40838            76.85657            18.10421            81.37597            21.57048            54.16564           143.92789           157.51891           232.18450            35.26907           114.69747            48.67620            62.54001           228.41192           145.53207           385.92931           155.97937           125.89888           172.36143            35.32771           196.02652           146.99918            42.42298           300.32638           227.81772            96.51276           307.72220           110.55731           157.94111           288.41873            39.04541            71.68162            54.27096            68.23748            36.89828            22.49977            67.82403           164.99645           155.16002           102.73468           360.12378           370.55031            66.19419           149.52382            25.47963           215.93057            64.18925           105.74404           151.60042            10.37093           140.82978            73.95979           101.80120           351.75531           112.85491            50.80514            70.27845            46.26170           220.42213             7.23766           158.78482            57.15993           125.75714            64.71257            93.81184            57.27600           178.11738            84.26985           166.55158            81.18475           127.79053           199.50077            60.35402            62.15260           143.74105            51.38813           124.11668           150.84192           208.79708           126.24610           145.08369            51.46736           104.00873            85.58462           122.98325            86.83901            26.64778            50.92474            93.38005            19.04476            72.76118           576.16580            85.80607            76.00081           120.11968           108.11254            24.11114            64.48375            82.47014           207.28973           111.39492            48.36585           268.87895            72.49221            63.32318            31.75532           195.08652            35.35666           322.40776            70.87372            92.02252            97.97926            75.07764            72.13882           116.77171           161.93798           219.17507            35.62863            75.81860           266.28859            20.42543            74.25781            94.82353           106.59967           131.70841           129.29384            97.38338            84.01092            26.87118            65.87425           124.67545            41.26281           179.78618           149.69961           105.56460            79.25065           180.42052            54.65859            36.19531            66.92366            75.18714           113.58229           173.03346            22.42222            78.68791            97.06668           136.70374            57.27538           143.99374            73.96269           117.22083            61.32688           126.91019            82.70844           154.87656           148.03136            90.48307           135.55272            90.82733            88.08208            75.63583            55.51750            86.59557           145.11193           184.96876           145.14668            62.69879            27.64215            43.89953            15.69571            37.17177            97.03658            32.92190           100.60996           146.69206            66.23477           151.78592           136.52373           152.12614           142.84369           136.73919           107.29082            83.55916            58.52190            79.38544            28.37067            58.88367           149.78679            73.60810            66.41989            70.32966            65.60794            59.30804            62.21999           284.69008            44.75783            11.68706            66.09799            88.46084            67.93922           135.12950            67.58212           421.87371            55.00437            67.50021           108.68697            41.05298            89.26086            68.23212            20.60475            75.16857            61.72135            75.71153           327.91086           221.83432            76.96048           394.07601            24.47499           128.53050            79.20021           107.18322           132.55017            46.41509           131.73395           198.48447           197.39186            26.17640            54.82423            28.69247           164.84729            96.30960           230.45277           158.01562            24.64995            40.24482            74.58181           116.88333           101.34002            51.71568           170.54774            92.53173            24.25296           234.60878           210.21692            62.57919            56.03806            58.55374            62.62297           149.16780            24.82651           104.71558            70.80526           133.93401            85.73681            64.83651           131.38040           105.02298           148.74961            72.95344            22.25976           182.27917            49.59962           228.16378            91.15827            21.23604            46.11400            72.31909           365.27444           197.77899           243.37564            43.94713           110.46928           180.18712           271.69792           100.64486            23.11431            61.88047            24.53315           184.84121           156.54390           374.89246           249.88006           210.56025            78.35117           120.79652           193.74146            32.46267            60.54131           169.96501           186.79635            48.78487            54.29809           362.07278            53.62251            39.49845            63.13487           281.19806           204.34147            15.05510            55.28107           104.14494            51.50522            41.62605            68.90708           102.80389            19.99679            32.54392           179.72476            88.65208           113.93684            72.53043            93.39442           375.36541           118.45870            92.54571            28.80366            19.37186           158.96634            26.28034            49.44909  