# vtk DataFile Version 3.0
Output from R3t
ASCII
DATASET UNSTRUCTURED_GRID
POINTS       6291 double
      0.00000000E+00      0.98900000E+01     -0.25000000E+02
      0.00000000E+00      0.98900000E+01     -0.24000000E+02
      0.00000000E+00      0.98900000E+01     -0.23000000E+02
      0.00000000E+00      0.98900000E+01     -0.22000000E+02
      0.00000000E+00      0.98900000E+01     -0.21000000E+02
      0.00000000E+00      0.98900000E+01     -0.20000000E+02
      0.00000000E+00      0.98900000E+01     -0.19000000E+02
      0.00000000E+00      0.98900000E+01     -0.18000000E+02
      0.00000000E+00      0.98900000E+01     -0.17000000E+02
      0.00000000E+00      0.98900000E+01     -0.16000000E+02
      0.00000000E+00      0.98900000E+01     -0.15000000E+02
      0.00000000E+00      0.98900000E+01     -0.14000000E+02
      0.00000000E+00      0.98900000E+01     -0.13000000E+02
      0.00000000E+00      0.98900000E+01     -0.12000000E+02
      0.00000000E+00      0.98900000E+01     -0.11000000E+02
      0.00000000E+00      0.98900000E+01     -0.10000000E+02
      0.00000000E+00      0.98900000E+01     -0.90000000E+01
      0.00000000E+00      0.98900000E+01     -0.80000000E+01
      0.00000000E+00      0.98900000E+01     -0.70000000E+01
      0.00000000E+00      0.98900000E+01     -0.60000000E+01
      0.00000000E+00      0.98900000E+01     -0.50000000E+01
      0.00000000E+00      0.98900000E+01     -0.40000000E+01
      0.00000000E+00      0.98900000E+01     -0.30000000E+01
      0.00000000E+00      0.98900000E+01     -0.20000000E+01
      0.94700000E+01      0.27090000E+02     -0.20000000E+01
      0.94700000E+01      0.27090000E+02     -0.30000000E+01
      0.94700000E+01      0.27090000E+02     -0.40000000E+01
      0.94700000E+01      0.27090000E+02     -0.50000000E+01
      0.94700000E+01      0.27090000E+02     -0.60000000E+01
      0.94700000E+01      0.27090000E+02     -0.70000000E+01
      0.94700000E+01      0.27090000E+02     -0.80000000E+01
      0.94700000E+01      0.27090000E+02     -0.90000000E+01
      0.94700000E+01      0.27090000E+02     -0.10000000E+02
      0.94700000E+01      0.27090000E+02     -0.11000000E+02
      0.94700000E+01      0.27090000E+02     -0.12000000E+02
      0.94700000E+01      0.27090000E+02     -0.13000000E+02
      0.94700000E+01      0.27090000E+02     -0.14000000E+02
      0.94700000E+01      0.27090000E+02     -0.15000000E+02
      0.94700000E+01      0.27090000E+02     -0.16000000E+02
      0.94700000E+01      0.27090000E+02     -0.17000000E+02
      0.94700000E+01      0.27090000E+02     -0.18000000E+02
      0.94700000E+01      0.27090000E+02     -0.19000000E+02
      0.94700000E+01      0.27090000E+02     -0.20000000E+02
      0.94700000E+01      0.27090000E+02     -0.21000000E+02
      0.94700000E+01      0.27090000E+02     -0.22000000E+02
      0.94700000E+01      0.27090000E+02     -0.23000000E+02
      0.94700000E+01      0.27090000E+02     -0.24000000E+02
      0.94700000E+01      0.27090000E+02     -0.25000000E+02
      0.10980000E+02      0.14860000E+02     -0.20000000E+01
      0.10980000E+02      0.14860000E+02     -0.30000000E+01
      0.10980000E+02      0.14860000E+02     -0.40000000E+01
      0.10980000E+02      0.14860000E+02     -0.50000000E+01
      0.10980000E+02      0.14860000E+02     -0.60000000E+01
      0.10980000E+02      0.14860000E+02     -0.70000000E+01
      0.10980000E+02      0.14860000E+02     -0.80000000E+01
      0.10980000E+02      0.14860000E+02     -0.90000000E+01
      0.10980000E+02      0.14860000E+02     -0.10000000E+02
      0.10980000E+02      0.14860000E+02     -0.11000000E+02
      0.10980000E+02      0.14860000E+02     -0.12000000E+02
      0.10980000E+02      0.14860000E+02     -0.13000000E+02
      0.10980000E+02      0.14860000E+02     -0.14000000E+02
      0.10980000E+02      0.14860000E+02     -0.15000000E+02
      0.10980000E+02      0.14860000E+02     -0.16000000E+02
      0.10980000E+02      0.14860000E+02     -0.17000000E+02
      0.10980000E+02      0.14860000E+02     -0.18000000E+02
      0.10980000E+02      0.14860000E+02     -0.19000000E+02
      0.10980000E+02      0.14860000E+02     -0.20000000E+02
      0.10980000E+02      0.14860000E+02     -0.21000000E+02
      0.10980000E+02      0.14860000E+02     -0.22000000E+02
      0.10980000E+02      0.14860000E+02     -0.23000000E+02
      0.10980000E+02      0.14860000E+02     -0.24000000E+02
      0.10980000E+02      0.14860000E+02     -0.25000000E+02
      0.26850000E+02      0.17850000E+02     -0.20000000E+01
      0.26850000E+02      0.17850000E+02     -0.30000000E+01
      0.26850000E+02      0.17850000E+02     -0.40000000E+01
      0.26850000E+02      0.17850000E+02     -0.50000000E+01
      0.26850000E+02      0.17850000E+02     -0.60000000E+01
      0.26850000E+02      0.17850000E+02     -0.70000000E+01
      0.26850000E+02      0.17850000E+02     -0.80000000E+01
      0.26850000E+02      0.17850000E+02     -0.90000000E+01
      0.26850000E+02      0.17850000E+02     -0.10000000E+02
      0.26850000E+02      0.17850000E+02     -0.11000000E+02
      0.26850000E+02      0.17850000E+02     -0.12000000E+02
      0.26850000E+02      0.17850000E+02     -0.13000000E+02
      0.26850000E+02      0.17850000E+02     -0.14000000E+02
      0.26850000E+02      0.17850000E+02     -0.15000000E+02
      0.26850000E+02      0.17850000E+02     -0.16000000E+02
      0.26850000E+02      0.17850000E+02     -0.17000000E+02
      0.26850000E+02      0.17850000E+02     -0.18000000E+02
      0.26850000E+02      0.17850000E+02     -0.19000000E+02
      0.26850000E+02      0.17850000E+02     -0.20000000E+02
      0.26850000E+02      0.17850000E+02     -0.21000000E+02
      0.26850000E+02      0.17850000E+02     -0.22000000E+02
      0.26850000E+02      0.17850000E+02     -0.23000000E+02
      0.26850000E+02      0.17850000E+02     -0.24000000E+02
      0.26850000E+02      0.17850000E+02     -0.25000000E+02
      0.18640000E+02      0.00000000E+00     -0.20000000E+01
      0.18640000E+02      0.00000000E+00     -0.30000000E+01
      0.18640000E+02      0.00000000E+00     -0.40000000E+01
      0.18640000E+02      0.00000000E+00     -0.50000000E+01
      0.18640000E+02      0.00000000E+00     -0.60000000E+01
      0.18640000E+02      0.00000000E+00     -0.70000000E+01
      0.18640000E+02      0.00000000E+00     -0.80000000E+01
      0.18640000E+02      0.00000000E+00     -0.90000000E+01
      0.18640000E+02      0.00000000E+00     -0.10000000E+02
      0.18640000E+02      0.00000000E+00     -0.11000000E+02
      0.18640000E+02      0.00000000E+00     -0.12000000E+02
      0.18640000E+02      0.00000000E+00     -0.13000000E+02
      0.18640000E+02      0.00000000E+00     -0.14000000E+02
      0.18640000E+02      0.00000000E+00     -0.15000000E+02
      0.18640000E+02      0.00000000E+00     -0.16000000E+02
      0.18640000E+02      0.00000000E+00     -0.17000000E+02
      0.18640000E+02      0.00000000E+00     -0.18000000E+02
      0.18640000E+02      0.00000000E+00     -0.19000000E+02
      0.18640000E+02      0.00000000E+00     -0.20000000E+02
      0.18640000E+02      0.00000000E+00     -0.21000000E+02
      0.18640000E+02      0.00000000E+00     -0.22000000E+02
      0.18640000E+02      0.00000000E+00     -0.23000000E+02
      0.18640000E+02      0.00000000E+00     -0.24000000E+02
      0.18640000E+02      0.00000000E+00     -0.25000000E+02
     -0.51140522E+00      0.71588023E+01     -0.20000000E+01
     -0.49593660E+00      0.60927425E+01     -0.20000000E+01
      0.41797281E+00      0.66361707E+01     -0.20000000E+01
      0.43302881E+00      0.55428034E+01     -0.20000000E+01
      0.13561809E+01      0.61090631E+01     -0.20000000E+01
      0.13734931E+01      0.50157223E+01     -0.20000000E+01
      0.22946745E+01      0.55837861E+01     -0.20000000E+01
      0.23105556E+01      0.45126988E+01     -0.20000000E+01
      0.32265139E+01      0.50650006E+01     -0.20000000E+01
      0.32146856E+01      0.61321849E+01     -0.20000000E+01
      0.41392408E+01      0.56152676E+01     -0.20000000E+01
      0.41270756E+01      0.66752199E+01     -0.20000000E+01
      0.50462507E+01      0.61598431E+01     -0.20000000E+01
      0.50297219E+01      0.72122270E+01     -0.20000000E+01
      0.59521252E+01      0.67000404E+01     -0.20000000E+01
      0.59630340E+01      0.56527579E+01     -0.20000000E+01
      0.68728908E+01      0.61848904E+01     -0.20000000E+01
      0.68806275E+01      0.51415218E+01     -0.20000000E+01
      0.77829501E+01      0.56725643E+01     -0.20000000E+01
      0.77944939E+01      0.46334428E+01     -0.20000000E+01
      0.86893990E+01      0.51697938E+01     -0.20000000E+01
      0.86832209E+01      0.62039514E+01     -0.20000000E+01
      0.95803132E+01      0.57034205E+01     -0.20000000E+01
      0.96043383E+01      0.46763211E+01     -0.20000000E+01
      0.10484532E+02      0.52092251E+01     -0.20000000E+01
      0.10462370E+02      0.62354564E+01     -0.20000000E+01
      0.11361191E+02      0.57398163E+01     -0.20000000E+01
      0.11385157E+02      0.47172493E+01     -0.20000000E+01
      0.12269868E+02      0.52491723E+01     -0.20000000E+01
      0.12234766E+02      0.62715667E+01     -0.20000000E+01
      0.13145121E+02      0.57852105E+01     -0.20000000E+01
      0.13105170E+02      0.67981838E+01     -0.20000000E+01
      0.13996842E+02      0.63084968E+01     -0.20000000E+01
      0.13974063E+02      0.73252275E+01     -0.20000000E+01
      0.14866600E+02      0.68365691E+01     -0.20000000E+01
      0.14844683E+02      0.78553010E+01     -0.20000000E+01
      0.15738493E+02      0.73655798E+01     -0.20000000E+01
      0.15717492E+02      0.83861582E+01     -0.20000000E+01
      0.16611680E+02      0.78942206E+01     -0.20000000E+01
      0.16592536E+02      0.89174787E+01     -0.20000000E+01
      0.17469384E+02      0.84568878E+01     -0.20000000E+01
      0.17466436E+02      0.94547743E+01     -0.20000000E+01
[...]
POINT_DATA      6291
CELL_DATA     33106
SCALARS Resistivity(ohm.m) double 1
LOOKUP_TABLE default
            94.99859           182.01268           176.75484            56.79006           259.21020           267.41771           177.39359            11.94043            76.47477           270.41016           111.48639            65.81994             9.47659             5.75522            88.59405            56.49784            78.76061           160.92540           170.41105            50.06323           150.73377            28.09356           404.80620            88.91596           368.71196            55.93159            27.09909           194.30686            59.92616             9.47217            62.70435           125.54705            72.85424            57.37824            81.51112           195.75736            66.52694            78.06208            92.22457            25.65263           121.08921            44.42864            64.50840            89.70261            84.48674           127.94991           136.21064            25.05852            70.18926           147.70668            10.39485           149.94706           118.90182            86.52067           158.30649            23.56229           174.51008           172.06583           351.10285           609.60261           145.80099           260.85514            56.89187            64.73813             3.59511            70.02209            71.73814            99.51313            81.16618           134.50956           345.33749           138.94648            52.08797           126.06466            25.55257            48.39127           121.95547           224.36440            21.51268            29.33534            61.72166            75.41766            24.33087            45.46430           397.13335           100.38255            88.23144            95.30943           261.42357           191.85661            50.88247            77.50424           149.05635            87.55659           119.26407            82.91743           385.60333            63.91182            56.48356            71.11484            69.04971            60.57537           192.61800            51.92340            31.79520           363.93443            64.79774            76.12150           147.99748           469.85619           101.25517            74.05303            65.46057            26.43469           132.29195            65.92952            75.86364            97.36965            22.34761            92.54861            19.19799            27.08248            44.01615            87.64365            83.87007           130.87065            87.60048            56.28386            80.28525            56.19356             5.87872            83.28761            68.25057           213.70598           108.82306            71.57982           214.96425            52.91635            93.00147           147.48556            87.03303            28.29508           124.41276            72.99665           113.11581           241.09238           174.64561            70.56888           120.55433            22.34681            62.82771           112.17670            57.34405            99.75653            72.58160            58.42216            94.90294           427.25812           111.88623            25.52235           189.57232           203.89747           136.63145           300.22669           262.38059           143.97181           170.22534           128.58938           187.76641           129.44621            43.86677           133.02864           178.83719            92.32570            58.33105           244.60772            44.18789           114.47746           144.11974            90.01289            54.49871            40.46483           147.62657           160.55386           121.35342            27.33782           107.79640           156.33148            17.60708            78.96113            53.68367            59.81186           171.06301            80.09836            65.44726            51.20441           186.86546            18.90096           157.73746            47.44716           116.72640            44.03162            21.03784            26.33077           133.68922           182.63639            26.18532            74.23065            47.02757            49.95775           342.90414            63.05255           157.40870           134.81148           107.53732           254.60157           105.92368            90.10753            57.10673            67.60902           182.80844           137.73074            98.21664            57.32707           208.06558            67.42868            28.28103           199.73760            26.99622            81.11996            58.44256            55.29231           153.86590            25.32148            86.48054           100.93308            61.67182            54.49115            75.61704            10.21119            81.37146            98.27155            82.00192            39.41480            66.13362            82.41585            71.42507           186.18003            59.66717           191.09276           123.60695            25.50329           129.86969            71.90399            79.20364            83.11039           129.34551            19.31676            66.14838            73.05383            99.56655            49.65646            93.69331           102.84296            82.58950            69.54044           261.87504            91.82190           141.22265            69.49387           148.57695            65.59775            16.55718            37.46404           295.79322           153.16161            18.74947            91.70058            54.02153            55.39513           383.73261            29.40023            69.18480           223.38940           194.65661            51.45652            76.06932            94.63666           214.62632           154.77362            79.99029           266.21090           158.46721           131.11828           131.16621           116.99570            24.61201            43.75388           276.84447            15.42479            94.69209            25.57735            21.24777            62.92218           240.00540           127.42021            79.01725            62.21092            59.28389           154.05563           356.70783           117.81800            81.18878            87.35045           115.86923           356.74373           473.28697            82.46767            59.06402           193.28427           276.92899            18.73275           182.82156           146.87424           264.08735           134.54505            52.27673           248.84047            99.34353            64.15923           118.15910           577.92609            27.71835           138.40106           309.76579           159.02953           180.45216            61.85736            42.20437           106.06693            60.83050           100.16480            75.03462           154.43359           269.96885           128.81722           100.60146            52.98555            95.06926            46.17322            65.61535           142.66273           378.25037            34.84759            23.65087            55.27174            30.83660            28.08503           163.60841            76.58993            51.80284            50.90861            58.62157            56.49365           152.62819           304.86760           101.66665            90.08909           101.91434            61.15746            96.96464           120.80870            54.58506           159.53604            64.51938            40.40990            75.11923            69.78937            55.19884            59.61930            75.86311            45.30745            50.43599            29.99734            29.14200            71.17098            86.40384            48.02098           105.39112            90.00177            21.83055           111.86689            87.62859            24.58901           221.47194            92.24833            40.44244           134.80693            69.40887            71.17489            97.31478            71.56842            56.22185           201.78738           284.57834           153.31762            79.18421           176.08682            26.85782           298.34250            34.33619            52.13134           138.36329           155.88146           197.67955            83.52197           145.03905            38.61172            53.39128           159.19776           104.75096            31.20607            42.09037           371.97379           143.09392            78.46195           201.39984           223.16361            28.24174            93.80828           108.96417            46.81469            44.54358           196.22460            73.08684           126.38002            31.80017           194.19787           148.64085           110.63415           109.81612           128.09097            85.03667            55.33987            37.44439            98.62010            76.06534           133.46297           139.78365            71.19743             4.13576            38.36966           282.83350            91.55929            93.53057           167.76546           230.47576           109.90965            89.71890           149.13911           250.98671            24.89578           140.69221            82.93235           133.15490            82.68880            42.15578            87.05553            72.31666            88.77325           128.87553            83.28131            91.85438            64.09335           130.63589           220.20971            81.37202            60.35494            92.59183            52.19780            97.58653            80.73833            86.08827           215.55115           100.00843            95.86722           141.86937           162.15121            73.86334            81.59458            86.35956           110.97982            95.03403            35.19923           132.72326            75.12234            10.79813            19.91013           134.58906            56.89105           256.73946            74.28377            43.98746           152.99696           105.31339            70.55061            25.97041           319.40242           100.04709            27.89544            68.58079            89.14474            43.47301            98.46202            79.17985           112.54142           101.46590            19.99146            59.54739           202.96345            97.98400            68.20375            86.54182           132.74894            40.68716            56.72501            83.67356           120.71167           220.24070            73.62821            60.72718            98.71307           179.99817            92.33830            95.90114           180.08812            93.24758           100.37866            43.43277           485.11617           140.62126           161.60918            47.71152           101.89180            92.49450            89.66825           217.68985            33.12289            49.90984           292.39879           121.28279           251.03714            79.25570           213.86659           119.69625            70.97243            96.14534           119.11010            40.22508           112.26163            68.00992           341.88966            62.03895           159.25348           251.94429           111.80343            64.72167           197.07463            20.20985            39.13753            73.27660           255.41364           158.63551            52.54169           138.17866            58.72888           130.08085           154.27716           187.83928           129.22526           292.31299           280.34699           133.64412            69.48865           222.01379            62.46262           135.25466            36.52129           187.37476            93.61777            93.37760           241.16439            73.74095           177.58321           131.02214            30.16656           131.50921            52.68965            72.92988            44.71115            84.56019            48.57249           124.13834            22.58536           167.41852            80.18982            31.67352            59.34306            25.41692           173.84297            73.63270           288.89254           103.30095            87.11473           130.05176            43.14322           259.54132           162.43284           163.10377            85.84535            74.97551            56.87032            76.80568            58.14054           136.91694           156.95462           249.99832           204.34351           147.12075           105.15380            79.21572            39.70370            98.01204            70.53176           214.54450            29.76774            15.59076           108.54532            64.96888            63.52874           149.06670            69.17074            80.93354           162.26148            45.51225            96.64475            18.03056           101.52119            26.47994            41.06838           216.83089            70.57039           438.18765            76.54321           209.86031            67.67751           216.42321           111.45607           117.51801           112.12148            41.61194            84.41673           113.35860            78.97125           116.44391            27.09512            22.65938           169.72641            32.54072            62.53713            31.13552            21.69164            18.44784            60.58068           165.45729            45.15637            76.49018            18.28925            81.79202            21.89799            55.46193           144.02412           157.75249           229.52322            34.82544           114.76471            48.91474            62.86509           227.19791           147.64457           381.27472           158.34787           125.77210           170.58597            35.44871           194.14703           146.63038            42.97169           299.90057           218.07998            97.04978           311.42535           110.32975           158.05654           285.38443            39.30108            73.55098            54.67416            68.57014            37.14576            22.45272            68.70098           165.38906           154.13023           103.15534           353.25065           363.77882            66.73728           148.77138            25.64039           218.05573            62.91600           106.52771           153.50520            10.50973           134.91896            73.71982           101.60296           340.67894           112.22336            51.11477            70.87343            46.58174           220.75879             7.36050           157.75102            57.28684           125.03954            65.12165            94.67785            56.21623           178.17814            84.79076           165.91774            81.31240           128.18769           198.58466            60.87048            62.49253           141.91400            51.66072           124.23977           151.16691           207.78777           122.14723           144.03968            50.83346           104.59787            86.22690           122.21505            86.87298            26.74134            51.20494            94.49036            19.41224            73.27382           572.15855            86.77644            72.38547           120.99311           108.94264            24.08985            64.94637            83.19296           206.73175           110.10893            48.28895           271.63953            71.62083            63.80109            31.94068           194.84088            35.29108           327.90139            71.17897            91.85038            98.49881            75.33211            72.76158           117.22731           160.99984           220.81730            36.14002            75.48734           263.49457            20.65209            70.25383            94.92663           105.84326           132.11534           129.33539            97.08264            84.68821            27.40586            66.11087           123.89492            41.89959           178.72851           149.16551           104.98428            79.38544           178.96425            55.04061            36.52520            67.22635            75.64860           113.27671           171.33333            22.75549            79.03014            97.45029           138.58781            57.49886           144.16129            74.30789           117.95788            61.77399           128.75597            82.64278           155.03385           147.28149            90.48167           135.80860            91.28747            89.11541            75.54466            56.15620            87.06060           144.98381           185.03109           145.45701            62.94783            28.29293            44.67441            15.82157            37.60747            97.89781            33.17507           101.47758           145.29683            67.13307           154.37132           137.05422           156.51145           141.40382           136.40112           107.32522            83.93655            58.78754            79.39707            28.51600            59.28853           149.56720            74.21966            66.56954            70.73182            64.96667            56.78908            62.70782           283.28019            44.96827            11.84185            66.19631            88.92740            68.27090           135.07159            68.02040           414.68477            55.08556            67.82571           108.14482            41.37170            89.35516            68.76875            21.05857            75.29842            61.11967            75.81587           320.02397           220.75651            77.56188           380.22247            25.33690           129.71164            79.47538           107.44827           135.13020            47.24935           133.64968           197.50061           196.57403            26.29429            55.12467            28.80230           164.60336            95.82847           230.21834           157.34798            24.79438            41.04332            75.57422           117.18345           101.42130            51.75916           170.45073            92.73965            24.25762           231.57431           209.62638            62.92485            56.51142            58.78381            62.66377           149.31437            25.03161           105.89563            71.41233           135.91600            85.87789            65.29160           131.70208           105.70192           149.34295            73.44533            22.81194           182.28156            49.93885           225.26026            92.02089            21.32907            45.90731            72.41313           357.30869           197.55398           240.17933            43.99256           109.22415           180.19713           266.46460           101.22163            23.09919            62.14739            25.07723           184.16892           157.50386           368.74586           246.69599           207.89887            78.77447           121.83428           193.45564            27.41045            60.93327           169.63927           186.03555            48.82524            49.86135           353.28475            54.28161            40.78598            63.47069           277.01099           203.23022            15.12884            55.59437           106.73498            51.71315            41.84296            69.18499           103.29155            20.28253            32.72494           179.09922            89.90253           114.31418            72.78642            93.88276           370.39635           118.91592            94.07953            28.06095            19.39323           160.26620            26.41273            50.49483  