# vtk DataFile Version 3.0
Output from R3t
ASCII
DATASET UNSTRUCTURED_GRID
POINTS       6291 double
      0.00000000E+00      0.98900000E+01     -0.25000000E+02
      0.00000000E+00      0.98900000E+01     -0.24000000E+02
      0.00000000E+00      0.98900000E+01     -0.23000000E+02
      0.00000000E+00      0.98900000E+01     -0.22000000E+02
      0.00000000E+00      0.98900000E+01     -0.21000000E+02
      0.00000000E+00      0.98900000E+01     -0.20000000E+02
      0.00000000E+00      0.98900000E+01     -0.19000000E+02
      0.00000000E+00      0.98900000E+01     -0.18000000E+02
      0.00000000E+00      0.98900000E+01     -0.17000000E+02
      0.00000000E+00      0.98900000E+01     -0.16000000E+02
      0.00000000E+00      0.98900000E+01     -0.15000000E+02
      0.00000000E+00      0.98900000E+01     -0.14000000E+02
      0.00000000E+00      0.98900000E+01     -0.13000000E+02
      0.00000000E+00      0.98900000E+01     -0.12000000E+02
      0.00000000E+00      0.98900000E+01     -0.11000000E+02
      0.00000000E+00      0.98900000E+01     -0.10000000E+02
      0.00000000E+00      0.98900000E+01     -0.90000000E+01
      0.00000000E+00      0.98900000E+01     -0.80000000E+01
      0.00000000E+00      0.98900000E+01     -0.70000000E+01
      0.00000000E+00      0.98900000E+01     -0.60000000E+01
      0.00000000E+00      0.98900000E+01     -0.50000000E+01
      0.00000000E+00      0.98900000E+01     -0.40000000E+01
      0.00000000E+00      0.98900000E+01     -0.30000000E+01
      0.00000000E+00      0.98900000E+01     -0.20000000E+01
      0.94700000E+01      0.27090000E+02     -0.20000000E+01
      0.94700000E+01      0.27090000E+02     -0.30000000E+01
      0.94700000E+01      0.27090000E+02     -0.40000000E+01
      0.94700000E+01      0.27090000E+02     -0.50000000E+01
      0.94700000E+01      0.27090000E+02     -0.60000000E+01
      0.94700000E+01      0.27090000E+02     -0.70000000E+01
      0.94700000E+01      0.27090000E+02     -0.80000000E+01
      0.94700000E+01      0.27090000E+02     -0.90000000E+01
      0.94700000E+01      0.27090000E+02     -0.10000000E+02
      0.94700000E+01      0.27090000E+02     -0.11000000E+02
      0.94700000E+01      0.27090000E+02     -0.12000000E+02
      0.94700000E+01      0.27090000E+02     -0.13000000E+02
      0.94700000E+01      0.27090000E+02     -0.14000000E+02
      0.94700000E+01      0.27090000E+02     -0.15000000E+02
      0.94700000E+01      0.27090000E+02     -0.16000000E+02
      0.94700000E+01      0.27090000E+02     -0.17000000E+02
      0.94700000E+01      0.27090000E+02     -0.18000000E+02
      0.94700000E+01      0.27090000E+02     -0.19000000E+02
      0.94700000E+01      0.27090000E+02     -0.20000000E+02
      0.94700000E+01      0.27090000E+02     -0.21000000E+02
      0.94700000E+01      0.27090000E+02     -0.22000000E+02
      0.94700000E+01      0.27090000E+02     -0.23000000E+02
      0.94700000E+01      0.27090000E+02     -0.24000000E+02
      0.94700000E+01      0.27090000E+02     -0.25000000E+02
      0.10980000E+02      0.14860000E+02     -0.20000000E+01
      0.10980000E+02      0.14860000E+02     -0.30000000E+01
      0.10980000E+02      0.14860000E+02     -0.40000000E+01
      0.10980000E+02      0.14860000E+02     -0.50000000E+01
      0.10980000E+02      0.14860000E+02     -0.60000000E+01
      0.10980000E+02      0.14860000E+02     -0.70000000E+01
      0.10980000E+02      0.14860000E+02     -0.80000000E+01
      0.10980000E+02      0.14860000E+02     -0.90000000E+01
      0.10980000E+02      0.14860000E+02     -0.10000000E+02
      0.10980000E+02      0.14860000E+02     -0.11000000E+02
      0.10980000E+02      0.14860000E+02     -0.12000000E+02
      0.10980000E+02      0.14860000E+02     -0.13000000E+02
      0.10980000E+02      0.14860000E+02     -0.14000000E+02
      0.10980000E+02      0.14860000E+02     -0.15000000E+02
      0.10980000E+02      0.14860000E+02     -0.16000000E+02
      0.10980000E+02      0.14860000E+02     -0.17000000E+02
      0.10980000E+02      0.14860000E+02     -0.18000000E+02
      0.10980000E+02      0.14860000E+02     -0.19000000E+02
      0.10980000E+02      0.14860000E+02     -0.20000000E+02
      0.10980000E+02      0.14860000E+02     -0.21000000E+02
      0.10980000E+02      0.14860000E+02     -0.22000000E+02
      0.10980000E+02      0.14860000E+02     -0.23000000E+02
      0.10980000E+02      0.14860000E+02     -0.24000000E+02
      0.10980000E+02      0.14860000E+02     -0.25000000E+02
      0.26850000E+02      0.17850000E+02     -0.20000000E+01
      0.26850000E+02      0.17850000E+02     -0.30000000E+01
      0.26850000E+02      0.17850000E+02     -0.40000000E+01
      0.26850000E+02      0.17850000E+02     -0.50000000E+01
      0.26850000E+02      0.17850000E+02     -0.60000000E+01
      0.26850000E+02      0.17850000E+02     -0.70000000E+01
      0.26850000E+02      0.17850000E+02     -0.80000000E+01
      0.26850000E+02      0.17850000E+02     -0.90000000E+01
      0.26850000E+02      0.17850000E+02     -0.10000000E+02
      0.26850000E+02      0.17850000E+02     -0.11000000E+02
      0.26850000E+02      0.17850000E+02     -0.12000000E+02
      0.26850000E+02      0.17850000E+02     -0.13000000E+02
      0.26850000E+02      0.17850000E+02     -0.14000000E+02
      0.26850000E+02      0.17850000E+02     -0.15000000E+02
      0.26850000E+02      0.17850000E+02     -0.16000000E+02
      0.26850000E+02      0.17850000E+02     -0.17000000E+02
      0.26850000E+02      0.17850000E+02     -0.18000000E+02
      0.26850000E+02      0.17850000E+02     -0.19000000E+02
      0.26850000E+02      0.17850000E+02     -0.20000000E+02
      0.26850000E+02      0.17850000E+02     -0.21000000E+02
      0.26850000E+02      0.17850000E+02     -0.22000000E+02
      0.26850000E+02      0.17850000E+02     -0.23000000E+02
      0.26850000E+02      0.17850000E+02     -0.24000000E+02
      0.26850000E+02      0.17850000E+02     -0.25000000E+02
      0.18640000E+02      0.00000000E+00     -0.20000000E+01
      0.18640000E+02      0.00000000E+00     -0.30000000E+01
      0.18640000E+02      0.00000000E+00     -0.40000000E+01
      0.18640000E+02      0.00000000E+00     -0.50000000E+01
      0.18640000E+02      0.00000000E+00     -0.60000000E+01
      0.18640000E+02      0.00000000E+00     -0.70000000E+01
      0.18640000E+02      0.00000000E+00     -0.80000000E+01
      0.18640000E+02      0.00000000E+00     -0.90000000E+01
      0.18640000E+02      0.00000000E+00     -0.10000000E+02
      0.18640000E+02      0.00000000E+00     -0.11000000E+02
      0.18640000E+02      0.00000000E+00     -0.12000000E+02
      0.18640000E+02      0.00000000E+00     -0.13000000E+02
      0.18640000E+02      0.00000000E+00     -0.14000000E+02
      0.18640000E+02      0.00000000E+00     -0.15000000E+02
      0.18640000E+02      0.00000000E+00     -0.16000000E+02
      0.18640000E+02      0.00000000E+00     -0.17000000E+02
      0.18640000E+02      0.00000000E+00     -0.18000000E+02
      0.18640000E+02      0.00000000E+00     -0.19000000E+02
      0.18640000E+02      0.00000000E+00     -0.20000000E+02
      0.18640000E+02      0.00000000E+00     -0.21000000E+02
      0.18640000E+02      0.00000000E+00     -0.22000000E+02
      0.18640000E+02      0.00000000E+00     -0.23000000E+02
      0.18640000E+02      0.00000000E+00     -0.24000000E+02
      0.18640000E+02      0.00000000E+00     -0.25000000E+02
     -0.51140522E+00      0.71588023E+01     -0.20000000E+01
     -0.49593660E+00      0.60927425E+01     -0.20000000E+01
      0.41797281E+00      0.66361707E+01     -0.20000000E+01
      0.43302881E+00      0.55428034E+01     -0.20000000E+01
      0.13561809E+01      0.61090631E+01     -0.20000000E+01
      0.13734931E+01      0.50157223E+01     -0.20000000E+01
      0.22946745E+01      0.55837861E+01     -0.20000000E+01
      0.23105556E+01      0.45126988E+01     -0.20000000E+01
      0.32265139E+01      0.50650006E+01     -0.20000000E+01
      0.32146856E+01      0.61321849E+01     -0.20000000E+01
      0.41392408E+01      0.56152676E+01     -0.20000000E+01
      0.41270756E+01      0.66752199E+01     -0.20000000E+01
      0.50462507E+01      0.61598431E+01     -0.20000000E+01
      0.50297219E+01      0.72122270E+01     -0.20000000E+01
      0.59521252E+01      0.67000404E+01     -0.20000000E+01
      0.59630340E+01      0.56527579E+01     -0.20000000E+01
      0.68728908E+01      0.61848904E+01     -0.20000000E+01
      0.68806275E+01      0.51415218E+01     -0.20000000E+01
      0.77829501E+01      0.56725643E+01     -0.20000000E+01
      0.77944939E+01      0.46334428E+01     -0.20000000E+01
      0.86893990E+01      0.51697938E+01     -0.20000000E+01
      0.86832209E+01      0.62039514E+01     -0.20000000E+01
      0.95803132E+01      0.57034205E+01     -0.20000000E+01
      0.96043383E+01      0.46763211E+01     -0.20000000E+01
      0.10484532E+02      0.52092251E+01     -0.20000000E+01
      0.10462370E+02      0.62354564E+01     -0.20000000E+01
      0.11361191E+02      0.57398163E+01     -0.20000000E+01
      0.11385157E+02      0.47172493E+01     -0.20000000E+01
      0.12269868E+02      0.52491723E+01     -0.20000000E+01
      0.12234766E+02      0.62715667E+01     -0.20000000E+01
      0.13145121E+02      0.57852105E+01     -0.20000000E+01
      0.13105170E+02      0.67981838E+01     -0.20000000E+01
      0.13996842E+02      0.63084968E+01     -0.20000000E+01
      0.13974063E+02      0.73252275E+01     -0.20000000E+01
      0.14866600E+02      0.68365691E+01     -0.20000000E+01
      0.14844683E+02      0.78553010E+01     -0.20000000E+01
      0.15738493E+02      0.73655798E+01     -0.20000000E+01
      0.15717492E+02      0.83861582E+01     -0.20000000E+01
      0.16611680E+02      0.78942206E+01     -0.20000000E+01
      0.16592536E+02      0.89174787E+01     -0.20000000E+01
      0.17469384E+02      0.84568878E+01     -0.20000000E+01
      0.17466436E+02      0.94547743E+01     -0.20000000E+01
[...]
POINT_DATA      6291
CELL_DATA     33106
SCALARS Resistivity(ohm.m) double 1
LOOKUP_TABLE default
            95.88223           180.68153           172.28979            55.85054           250.50681           262.86589           182.96198            11.63861            81.01952           266.28752           108.57572            64.78308             9.19582             5.69227            87.99270            56.33391            81.22143           159.04820           170.61442            49.95476           144.89138            27.62469           382.37519            88.47296           286.78011            55.28195            26.74313           189.64985            59.11982             9.17267            63.98624           122.88688            72.24641            56.26829            80.01024           192.38286            68.86159            77.55656            91.06042            25.34552           116.61881            44.67951            63.93523            89.69104            84.61164           125.49672           140.92931            25.09252            69.80222           145.83364             9.98809           154.99204           116.94899            86.76915           157.57400            22.70828           193.87875           172.19695           364.28994           582.09315           141.96205           271.73021            55.93402            64.14992             3.54220            69.04274            70.35235            96.96503            81.84677           130.83304           359.11638           138.46959            51.33311           124.14193            25.37784            47.87654           123.25349           224.36848            21.67341            29.23378            61.28112            75.05866            24.57478            45.04594           368.98773            99.06205           136.52152            95.40954           252.52661           188.61438            50.67507            76.69468           148.33793            87.39805           118.19271            84.53392           363.57991            62.32924            56.56736            70.86035            67.35527            61.66541           196.11510            52.31194            31.28916           302.54875            63.84418            77.81122           149.43144           462.75210            99.30809            73.10990            63.35772            26.71982           130.74839            66.17660            75.63383            95.46183            22.43353            97.10624            18.89669            26.95713            42.85446            86.08940            85.14935           129.98657            85.47809            55.46846            80.13921            55.34324             5.85514            86.18069            67.64838           210.44619           113.12833            72.07184           210.21472            52.08834            95.49337           143.87285            86.25204            27.87111           127.21998            73.93100           119.65288           234.71429           128.24480            68.46465           115.05644            21.90950            63.00413           106.74238            57.26786            99.28059            72.12922            57.58543            93.59862           397.02252           109.10183            25.66723           190.22534           197.14608           181.56967           241.14338           257.55872           145.38310           132.94768           132.53806           223.56879           125.79764            43.35282           138.33459           175.73138            89.47235            57.58163           237.70986            43.56001           112.56026           144.04367            88.53876            55.07469            39.93752           146.43154           156.75710           120.16011            27.54335           113.24954           153.52604            17.51292            77.64866            53.20880            56.03349           169.93387            78.66592            64.88636            50.80010           182.83525            19.11911           159.58019            47.25830           115.18919            43.44182            20.61871            26.49410           130.71694           218.52801            26.25579            75.57659            47.43591            49.98182           343.37209            62.48094           155.12434           129.85877           107.98051           252.21232           104.28779            86.68606            57.32569            68.00767           179.75721           136.58394            99.12938            56.99724           206.00892            67.18107            27.19558           202.45044            26.68815            79.54658            57.56728            55.68520           151.51341            24.96702            87.25943            99.85185            62.09974            54.32630            77.04432             9.85227            80.89353            96.76885            81.20472            38.82565            67.81042            81.58921            70.03600           184.52156            59.03936           190.38679           120.35347            25.50110           127.68462            72.15205            77.59652            83.10748           127.42221            19.43527            65.84302            70.97209           105.04192            49.27117            94.17749           101.85090            87.81845            68.48929           256.02487            97.25007           138.43461            69.97707           146.08558            66.54724            17.10203            37.20763           285.51688           151.86396            18.61335            91.51953            53.46683            54.70320           391.15579            28.57317            67.99595           224.33421           192.99490            51.12570            75.64365           100.04147           215.11498           152.00970            76.86231           260.41495           156.26863           136.35015           131.79470           116.71334            23.98183            43.67417           266.94208            14.81547            93.15922            25.34282            20.55710            62.85426           239.89593           125.32390            78.70019            65.27753            58.69500           151.65265           337.88148           118.30871            83.49482            84.91332           114.25770           342.78149           749.61105            86.37158            58.77424           184.36227           275.92098            19.29498           181.29675           144.77201           248.63473           133.56897            52.06168           244.56129            98.13362            65.84899           116.56031           984.00699            26.88291           137.41733           319.63856           122.40535           180.82765            62.02498            41.61628           106.08596            60.58646            96.57684            75.83108           153.25467           266.18065           129.63043            98.76521            52.92441            94.71769            45.53792            66.17629           142.94695           354.22996            34.49223            22.74526            54.68026            30.70059            28.27402           162.28594            75.61660            51.71411            50.46112            58.39023            55.41279           155.30851           296.86011            95.89488            92.20984           100.17893            60.75640            96.12032           119.66248            55.10635           156.93618            62.97097            40.58161            73.74533            70.56510            55.03546            60.00654            74.46215            44.72864            50.68036            29.44152            30.62399            69.50631            91.80380            47.07796           104.92145            85.33522            21.26502           108.91852            86.67975            24.02415           224.52354            91.96069            39.60267           132.87294            69.79736            71.40834            95.97968            71.98954            56.62151           199.25694           279.99331           149.52764            78.23531           181.37031            26.41843           288.20573            34.20477            51.18818           138.27130           153.65730           197.02269            82.31591           143.15280            38.32345            54.52127           153.87361           104.69815            29.72790            41.97620           355.93580           141.96874            77.68375           200.81069           222.55071            28.36671            96.10690           108.43825            46.71925            42.30338           206.64128            72.97181           124.14816            31.38019           200.97120           148.92647           111.34098           106.86773           126.43392            83.06421            55.16201            36.52411            97.39250            75.71606           131.87353           134.26469            70.34798             4.05130            37.98409           279.18937            95.83747            91.87358           167.71013           229.18539           108.12499            86.27968           159.05919           252.16924            25.00830           142.78668            82.01901           132.77235            84.83024            41.78403            86.14248            71.72815            93.36773           126.92397            81.08415            91.74150            63.11206           128.83938           290.29645            80.27811            60.58121            91.09532            51.73434            94.82226            79.16021            85.23639           211.99953            97.72576            98.24433           146.21004           162.02983            72.33444            85.89721            85.44866           105.48419            95.35021            34.47396           129.94636            73.72362            10.38410            19.65492           132.25923            56.10304           253.09740            73.58359            44.05887           151.85057           101.73974            72.47161            25.43807           330.08143           100.64085            27.52100            68.99816            89.58295            41.44841            99.07292            76.23493           110.28186           100.26321            19.41948            58.75176           201.82060            96.22107            68.54334            86.93205           129.51169            39.90130            58.25627            82.67144           119.33847           216.52685            70.98415            59.81103            99.37344           199.60124            93.57358            97.96578           177.00741            92.59724           109.85908            44.72678           465.17530           140.29628           169.43449            50.63048           100.81841            90.72291            88.08089           211.90381            32.93739            49.83052           296.73216           126.20033           249.06650            82.42295           199.50974           119.88508            70.34272            93.13610           124.27579            39.55480           110.32398            64.22109           327.82929            60.87818           155.26599           243.79617           119.86695            63.89208           198.25659            19.27510            38.76009            73.62762           253.17328           157.25717            51.94430           136.45510            58.33562           127.46641           151.19957           225.08916           131.37918           278.57636           295.97978           130.86741            68.19338           216.89785            61.90663           131.03327            35.72693           153.74309            94.21761            91.55926           249.59078            72.42799           176.93831           130.44949            30.40193           133.89918            52.37256            70.34559            44.14264            81.25375            48.42713           122.64078            21.95812           165.28007            79.68003            30.62754            58.93222            24.97712           171.86227            74.17062           279.57471           100.61312            86.90563           128.77433            42.88243           286.82283           160.60612           160.15838            84.88248            77.04170            55.69213            79.44532            58.34290           134.60795           158.89393           250.57577           203.42546           147.58610            68.88723            82.21658            39.60377            97.82098            69.30515           208.50778            28.68032            15.03646           107.12511            64.45770            62.72082           146.32254            67.69463            83.89954           177.56631            45.14365            96.58203            17.79333            99.57015            26.41292            42.46540           214.10685            70.20586           459.71252            80.23525           207.55942            66.70910           213.95672           109.54241           116.38198           107.59655            40.84960            82.89076           109.97307            77.54436           116.03425            26.70252            22.07879           166.34286            31.15998            62.08137            30.91974            21.81386            17.52581            60.71918           172.34724            44.09871            76.79735            18.22422            80.45927            21.23609            51.60838           143.00297           153.91996           224.68173            36.62780           114.41657            48.58575            61.85991           218.83232           142.90286           363.93790           156.80142           126.27773           168.30177            35.22868           195.22831           150.42964            42.12316           298.10904           253.31712            95.31275           304.81879           110.19910           157.66782           275.66300            39.39887            73.32283            53.98840            67.55706            36.91159            22.57766            67.21748           162.24750           162.94483           101.69090           341.08911           344.91676            65.77065           148.54916            25.43747           215.41215            62.46633           107.06317           152.69580            10.30158           136.23044            73.50780           101.16895           370.54966           112.88628            50.57870            69.77909            46.03646           218.42681             7.25740           155.69108            56.77117           125.15339            64.32516            95.43169            55.83935           178.49057            83.17550           163.18794            80.97262           126.08570           194.32929            60.19691            61.40247           138.13056            51.15346           123.41096           148.47102           209.53498           100.88635           145.26386            49.33041           108.57430            84.91608           120.93329            86.76691            26.55632            50.81016            91.75362            18.80980            71.83560           865.89641            87.08031            55.49238           118.57909           106.99381            24.42384            64.42624            81.66344           207.68812           117.88494            48.46768           282.24421            74.14568            63.10479            31.70071           191.12127            35.37459           309.54687            70.42122            91.31497            97.25811            74.73832            71.43639           120.87422           179.06052           214.13235            35.47539            75.74307           255.92522            20.14865            74.12731            95.19850           110.21811           139.59509           128.60841            96.54722            82.77219            26.07817            65.54327           123.76547            40.16106           195.39301           146.80145           104.91866            79.19036           177.59137            54.42783            35.83904            66.48756            78.00995           109.57809           169.85974            22.08438            77.96971            97.17440           134.48131            57.78996           141.59449            73.38833           116.62811            61.80416           131.89154            82.91273           151.41305           147.43962            91.88590           126.81741            90.09669            87.69431            75.50469            54.75154            86.03511           144.26495           181.80776           144.75627            62.38547            26.71461            42.57236            15.94667            36.42273            94.96065            32.73876            99.48139           148.00545            65.55309           151.12165           135.11118           146.38320           145.85712           137.22209           108.26321            82.21067            60.64547            78.56277            28.22249            58.57373           148.05443            72.67532            68.95116            70.98571            63.52914            59.10860            62.08086           279.34020            44.78399            11.53818            67.05571            94.11751            67.65733           153.64986            66.61818           390.76848            54.85765            67.11338           106.08140            41.79331            93.58175            67.91089            19.62888            75.98064            62.13995            74.97050           318.84356           213.41459            76.43133           362.53068            25.48891           133.46699            80.55271           104.91603           133.33972            48.25547           131.01838           196.75272           193.20601            26.14288            54.60969            28.60007           163.66826            96.81275           227.99361           155.98072            24.60780            40.24766            73.75438           116.00451           107.83868            51.79889           170.02375            91.82332            24.29736           233.16453           205.80592            61.87024            55.77494            58.19655            59.12720           146.77162            24.66583           105.40597            70.33455           130.95465            86.45356            63.97363           129.55651           105.00075           146.51607            72.46276            23.79209           179.36674            49.29207           248.87541            91.93389            21.19146            46.96697            72.46458           362.85025           195.77053           239.58480            44.12929           109.87879           177.39596           271.31859            99.81072            23.20125            61.46120            24.42618           183.58226           155.35126           354.58404           247.01440           211.90654            77.88325           120.37136           184.49849            40.92886            60.98936           169.52787           185.26120            47.06654            45.66028           326.98297            53.11008            38.81748            62.71772           270.84878           201.60932            15.34898            55.35980           100.87141            52.25828            41.47495            68.81065           102.31188            19.53514            32.02264           177.99686            87.88389           111.17667            72.07143            94.29234           355.34384           116.87145            88.66952            30.26214            19.79124           163.31316            26.23552            49.58147  