# vtk DataFile Version 3.0
Output from R3t
ASCII
DATASET UNSTRUCTURED_GRID
POINTS       6291 double
      0.00000000E+00      0.98900000E+01     -0.25000000E+02
      0.00000000E+00      0.98900000E+01     -0.24000000E+02
      0.00000000E+00      0.98900000E+01     -0.23000000E+02
      0.00000000E+00      0.98900000E+01     -0.22000000E+02
      0.00000000E+00      0.98900000E+01     -0.21000000E+02
      0.00000000E+00      0.98900000E+01     -0.20000000E+02
      0.00000000E+00      0.98900000E+01     -0.19000000E+02
      0.00000000E+00      0.98900000E+01     -0.18000000E+02
      0.00000000E+00      0.98900000E+01     -0.17000000E+02
      0.00000000E+00      0.98900000E+01     -0.16000000E+02
      0.00000000E+00      0.98900000E+01     -0.15000000E+02
      0.00000000E+00      0.98900000E+01     -0.14000000E+02
      0.00000000E+00      0.98900000E+01     -0.13000000E+02
      0.00000000E+00      0.98900000E+01     -0.12000000E+02
      0.00000000E+00      0.98900000E+01     -0.11000000E+02
      0.00000000E+00      0.98900000E+01     -0.10000000E+02
      0.00000000E+00      0.98900000E+01     -0.90000000E+01
      0.00000000E+00      0.98900000E+01     -0.80000000E+01
      0.00000000E+00      0.98900000E+01     -0.70000000E+01
      0.00000000E+00      0.98900000E+01     -0.60000000E+01
      0.00000000E+00      0.98900000E+01     -0.50000000E+01
      0.00000000E+00      0.98900000E+01     -0.40000000E+01
      0.00000000E+00      0.98900000E+01     -0.30000000E+01
      0.00000000E+00      0.98900000E+01     -0.20000000E+01
      0.94700000E+01      0.27090000E+02     -0.20000000E+01
      0.94700000E+01      0.27090000E+02     -0.30000000E+01
      0.94700000E+01      0.27090000E+02     -0.40000000E+01
      0.94700000E+01      0.27090000E+02     -0.50000000E+01
      0.94700000E+01      0.27090000E+02     -0.60000000E+01
      0.94700000E+01      0.27090000E+02     -0.70000000E+01
      0.94700000E+01      0.27090000E+02     -0.80000000E+01
      0.94700000E+01      0.27090000E+02     -0.90000000E+01
      0.94700000E+01      0.27090000E+02     -0.10000000E+02
      0.94700000E+01      0.27090000E+02     -0.11000000E+02
      0.94700000E+01      0.27090000E+02     -0.12000000E+02
      0.94700000E+01      0.27090000E+02     -0.13000000E+02
      0.94700000E+01      0.27090000E+02     -0.14000000E+02
      0.94700000E+01      0.27090000E+02     -0.15000000E+02
      0.94700000E+01      0.27090000E+02     -0.16000000E+02
      0.94700000E+01      0.27090000E+02     -0.17000000E+02
      0.94700000E+01      0.27090000E+02     -0.18000000E+02
      0.94700000E+01      0.27090000E+02     -0.19000000E+02
      0.94700000E+01      0.27090000E+02     -0.20000000E+02
      0.94700000E+01      0.27090000E+02     -0.21000000E+02
      0.94700000E+01      0.27090000E+02     -0.22000000E+02
      0.94700000E+01      0.27090000E+02     -0.23000000E+02
      0.94700000E+01      0.27090000E+02     -0.24000000E+02
      0.94700000E+01      0.27090000E+02     -0.25000000E+02
      0.10980000E+02      0.14860000E+02     -0.20000000E+01
      0.10980000E+02      0.14860000E+02     -0.30000000E+01
      0.10980000E+02      0.14860000E+02     -0.40000000E+01
      0.10980000E+02      0.14860000E+02     -0.50000000E+01
      0.10980000E+02      0.14860000E+02     -0.60000000E+01
      0.10980000E+02      0.14860000E+02     -0.70000000E+01
      0.10980000E+02      0.14860000E+02     -0.80000000E+01
      0.10980000E+02      0.14860000E+02     -0.90000000E+01
      0.10980000E+02      0.14860000E+02     -0.10000000E+02
      0.10980000E+02      0.14860000E+02     -0.11000000E+02
      0.10980000E+02      0.14860000E+02     -0.12000000E+02
      0.10980000E+02      0.14860000E+02     -0.13000000E+02
      0.10980000E+02      0.14860000E+02     -0.14000000E+02
      0.10980000E+02      0.14860000E+02     -0.15000000E+02
      0.10980000E+02      0.14860000E+02     -0.16000000E+02
      0.10980000E+02      0.14860000E+02     -0.17000000E+02
      0.10980000E+02      0.14860000E+02     -0.18000000E+02
      0.10980000E+02      0.14860000E+02     -0.19000000E+02
      0.10980000E+02      0.14860000E+02     -0.20000000E+02
      0.10980000E+02      0.14860000E+02     -0.21000000E+02
      0.10980000E+02      0.14860000E+02     -0.22000000E+02
      0.10980000E+02      0.14860000E+02     -0.23000000E+02
      0.10980000E+02      0.14860000E+02     -0.24000000E+02
      0.10980000E+02      0.14860000E+02     -0.25000000E+02
      0.26850000E+02      0.17850000E+02     -0.20000000E+01
      0.26850000E+02      0.17850000E+02     -0.30000000E+01
      0.26850000E+02      0.17850000E+02     -0.40000000E+01
      0.26850000E+02      0.17850000E+02     -0.50000000E+01
      0.26850000E+02      0.17850000E+02     -0.60000000E+01
      0.26850000E+02      0.17850000E+02     -0.70000000E+01
      0.26850000E+02      0.17850000E+02     -0.80000000E+01
      0.26850000E+02      0.17850000E+02     -0.90000000E+01
      0.26850000E+02      0.17850000E+02     -0.10000000E+02
      0.26850000E+02      0.17850000E+02     -0.11000000E+02
      0.26850000E+02      0.17850000E+02     -0.12000000E+02
      0.26850000E+02      0.17850000E+02     -0.13000000E+02
      0.26850000E+02      0.17850000E+02     -0.14000000E+02
      0.26850000E+02      0.17850000E+02     -0.15000000E+02
      0.26850000E+02      0.17850000E+02     -0.16000000E+02
      0.26850000E+02      0.17850000E+02     -0.17000000E+02
      0.26850000E+02      0.17850000E+02     -0.18000000E+02
      0.26850000E+02      0.17850000E+02     -0.19000000E+02
      0.26850000E+02      0.17850000E+02     -0.20000000E+02
      0.26850000E+02      0.17850000E+02     -0.21000000E+02
      0.26850000E+02      0.17850000E+02     -0.22000000E+02
      0.26850000E+02      0.17850000E+02     -0.23000000E+02
      0.26850000E+02      0.17850000E+02     -0.24000000E+02
      0.26850000E+02      0.17850000E+02     -0.25000000E+02
      0.18640000E+02      0.00000000E+00     -0.20000000E+01
      0.18640000E+02      0.00000000E+00     -0.30000000E+01
      0.18640000E+02      0.00000000E+00     -0.40000000E+01
      0.18640000E+02      0.00000000E+00     -0.50000000E+01
      0.18640000E+02      0.00000000E+00     -0.60000000E+01
      0.18640000E+02      0.00000000E+00     -0.70000000E+01
      0.18640000E+02      0.00000000E+00     -0.80000000E+01
      0.18640000E+02      0.00000000E+00     -0.90000000E+01
      0.18640000E+02      0.00000000E+00     -0.10000000E+02
      0.18640000E+02      0.00000000E+00     -0.11000000E+02
      0.18640000E+02      0.00000000E+00     -0.12000000E+02
      0.18640000E+02      0.00000000E+00     -0.13000000E+02
      0.18640000E+02      0.00000000E+00     -0.14000000E+02
      0.18640000E+02      0.00000000E+00     -0.15000000E+02
      0.18640000E+02      0.00000000E+00     -0.16000000E+02
      0.18640000E+02      0.00000000E+00     -0.17000000E+02
      0.18640000E+02      0.00000000E+00     -0.18000000E+02
      0.18640000E+02      0.00000000E+00     -0.19000000E+02
      0.18640000E+02      0.00000000E+00     -0.20000000E+02
      0.18640000E+02      0.00000000E+00     -0.21000000E+02
      0.18640000E+02      0.00000000E+00     -0.22000000E+02
      0.18640000E+02      0.00000000E+00     -0.23000000E+02
      0.18640000E+02      0.00000000E+00     -0.24000000E+02
      0.18640000E+02      0.00000000E+00     -0.25000000E+02
     -0.51140522E+00      0.71588023E+01     -0.20000000E+01
     -0.49593660E+00      0.60927425E+01     -0.20000000E+01
      0.41797281E+00      0.66361707E+01     -0.20000000E+01
      0.43302881E+00      0.55428034E+01     -0.20000000E+01
      0.13561809E+01      0.61090631E+01     -0.20000000E+01
      0.13734931E+01      0.50157223E+01     -0.20000000E+01
      0.22946745E+01      0.55837861E+01     -0.20000000E+01
      0.23105556E+01      0.45126988E+01     -0.20000000E+01
      0.32265139E+01      0.50650006E+01     -0.20000000E+01
      0.32146856E+01      0.61321849E+01     -0.20000000E+01
      0.41392408E+01      0.56152676E+01     -0.20000000E+01
      0.41270756E+01      0.66752199E+01     -0.20000000E+01
      0.50462507E+01      0.61598431E+01     -0.20000000E+01
      0.50297219E+01      0.72122270E+01     -0.20000000E+01
      0.59521252E+01      0.67000404E+01     -0.20000000E+01
      0.59630340E+01      0.56527579E+01     -0.20000000E+01
      0.68728908E+01      0.61848904E+01     -0.20000000E+01
      0.68806275E+01      0.51415218E+01     -0.20000000E+01
      0.77829501E+01      0.56725643E+01     -0.20000000E+01
      0.77944939E+01      0.46334428E+01     -0.20000000E+01
      0.86893990E+01      0.51697938E+01     -0.20000000E+01
      0.86832209E+01      0.62039514E+01     -0.20000000E+01
      0.95803132E+01      0.57034205E+01     -0.20000000E+01
      0.96043383E+01      0.46763211E+01     -0.20000000E+01
      0.10484532E+02      0.52092251E+01     -0.20000000E+01
      0.10462370E+02      0.62354564E+01     -0.20000000E+01
      0.11361191E+02      0.57398163E+01     -0.20000000E+01
      0.11385157E+02      0.47172493E+01     -0.20000000E+01
      0.12269868E+02      0.52491723E+01     -0.20000000E+01
      0.12234766E+02      0.62715667E+01     -0.20000000E+01
      0.13145121E+02      0.57852105E+01     -0.20000000E+01
      0.13105170E+02      0.67981838E+01     -0.20000000E+01
      0.13996842E+02      0.63084968E+01     -0.20000000E+01
      0.13974063E+02      0.73252275E+01     -0.20000000E+01
      0.14866600E+02      0.68365691E+01     -0.20000000E+01
      0.14844683E+02      0.78553010E+01     -0.20000000E+01
      0.15738493E+02      0.73655798E+01     -0.20000000E+01
      0.15717492E+02      0.83861582E+01     -0.20000000E+01
      0.16611680E+02      0.78942206E+01     -0.20000000E+01
      0.16592536E+02      0.89174787E+01     -0.20000000E+01
      0.17469384E+02      0.84568878E+01     -0.20000000E+01
      0.17466436E+02      0.94547743E+01     -0.20000000E+01
[...]
POINT_DATA      6291
CELL_DATA     33106
SCALARS Resistivity(ohm.m) double 1
LOOKUP_TABLE default
            96.33772           174.28263           172.03475            56.43526           254.20973           260.60657           185.56040            11.90590            81.74155           264.62191           109.96017            65.50633             9.46015             5.86134            88.38916            56.81315            82.12918           159.73309           170.27936            50.47565           145.10414            27.88796           375.79143            88.53825           276.08217            55.89038            27.12964           189.63029            59.81181             9.46079            64.35394           123.92889            72.53019            57.59986            81.03682           192.24432            69.60926            77.99251            91.95393            25.75812           116.79056            44.75921            64.31472            89.06253            85.25269           126.06087           139.12125            25.34097            70.11734           145.24675            10.30039           158.08660           116.37516            87.32950           159.97279            23.36295           193.51707           175.55288           365.42250           595.36903           142.94434           255.48935            57.11763            64.68266             3.67183            70.02403            71.70147            98.37102            80.96683           131.92488           343.55329           139.23436            51.78665           124.92138            26.84880            48.52386           122.23732           221.57887            21.59259            29.62773            61.42078            75.32728            24.58066            45.80760           359.99926            99.55729           140.19068            94.03007           251.44233           182.93641            51.32412            78.12512           148.99217            83.54195           118.76722            86.33368           355.26052            63.41021            56.95355            70.75064            67.98425            62.35426           197.81020            52.00905            31.54842           290.59426            64.61237            79.42366           143.95176           456.47144           100.05265            73.61065            64.02597            26.46961           128.22740            66.59909            75.54363            96.62893            22.42186            95.37818            19.10816            27.06002            44.14736            86.70183            83.75351           128.25589            87.26121            56.55216            79.89800            56.33330             6.01853            86.91829            68.50283           209.21013           112.76296            73.71333           208.69240            52.53494            96.21535           144.40606            86.79404            28.29642           137.70519            73.90627           118.00751           234.14900           122.89295            69.53174           118.58390            22.21441            62.64902           106.14180            57.73814            99.31090            72.48569            58.21324            93.40814           383.75894           108.75489            25.43456           187.70608           194.91748           179.17191           231.80674           255.85612           145.65253           125.44500           132.53871           238.22085           126.77210            44.53948           137.96276           175.53698            91.21676            58.34617           234.60976            44.25937           113.55112           142.76420            88.54244            54.40696            40.42093           146.17109           157.28564           120.71047            27.45004           112.35347           154.55751            17.72181            78.42452            53.33873            56.26118           167.66307            80.73772            65.24526            51.43316           181.19078            18.98960           154.67597            47.62107           115.32714            44.07708            20.94039            26.22682           128.94220           204.46025            26.01861            75.64421            46.77489            49.72770           348.61173            62.72375           155.31969           128.36215           104.55471           251.56680           104.23971            87.99124            56.77380            67.88375           179.67177           135.03733            99.58441            57.02624           204.78831            67.29594            27.89954           195.83692            27.00816            80.53802            58.24325            57.34580           151.61725            26.12628            87.48132           100.14322            61.74376            54.74728            78.29182            10.16423            81.18417            95.83361            81.82393            39.58235            67.06303            82.93669            70.74140           188.68163            59.82729           190.01821           121.36097            25.82531           130.61296            71.67197            78.82509            83.49112           127.87385            19.36655            66.41142            71.78606           103.72414            49.87441            94.94045           102.12466            88.98246            69.37725           255.18010            97.89159           139.57279            69.77427           147.95716            66.73695            17.10845            37.44168           276.62760           149.26573            18.88595            91.25753            54.07141            55.32360           380.31291            29.06927            69.07757           222.89721           190.47113            51.37974            76.54237            99.33617           209.79446           150.79534            77.56829           256.43324           157.11865           133.60154           137.84541           116.48263            24.51053            43.96543           261.22505            15.28201            94.72740            25.50763            21.09823            64.66136           240.29932           126.44891            79.22050            65.74416            59.06779           151.01190           328.05887           118.20552            83.94803            86.03005           113.79617           336.61658           786.21817            87.44374            58.77185           182.52082           276.86141            19.30603           178.92253           144.35732           255.19509           134.05247            52.63070           243.15836            98.52329            66.62248           117.38506          1018.68679            27.45655           138.10821           308.85462           117.96149           180.50683            62.34388            42.02291           106.50064            60.71450            97.82827            76.24043           152.91449           263.02428           125.64208            99.94400            53.13462            95.22055            45.70270            65.98067           141.41402           345.19529            34.84087            23.22917            55.22350            30.82773            28.13942           159.93481            76.76760            52.25117            51.02610            58.92826            56.21805           155.62728           308.11764            93.45411            92.88439           101.02867            60.91702            96.28073           120.07716            55.46788           157.10547            60.34884            40.38429            74.46586            70.20914            55.46954            59.59166            75.62553            45.37683            51.13251            30.29553            30.36704            71.87733            92.90216            47.08432           105.55917            89.24821            21.73103           109.93357            87.35781            24.49575           223.73808            91.50453            40.58444           133.55512            69.22890            71.38190            94.82375            71.77283            56.99431           197.20344           281.20171           152.33894            79.36803           183.23344            26.79248           283.65571            34.33606            52.23809           139.01982           150.32680           197.17719            83.08683           145.26912            38.58509            55.12507           154.24861           104.13339            30.96338            42.18738           348.87767           141.75631            78.08381           200.76344           221.86054            28.09112            95.92712           107.74457            47.02481            43.65894           205.85383            73.86607           124.89443            31.86810           198.03181           147.51158           110.20855           109.09932           127.01383            84.57965            55.52140            37.02624            97.68439            77.73592           132.27240           138.70412            70.65516             4.22500            38.17202           281.05721            96.99018            92.81119           167.54072           229.56798           108.17028            88.42083           154.06123           248.43241            24.93858           143.54694            82.06222           132.47554            86.11826            42.04179            86.60703            71.95946            85.75017           126.58475            81.80362            92.08181            63.65844           129.49746           279.34430            80.65175            60.65943            92.28911            52.31991            97.28423            81.17069            86.44055           211.71399           100.23221            99.47317           144.48720           161.83848            72.92589            87.04378            86.32525           102.34126            95.52309            34.89228           130.58969            74.74948            10.69357            19.85454           133.11869            57.12031           250.35223            73.97615            44.53597           151.45591           102.69725            73.11444            25.83302           316.48366            99.46132            27.92566            68.47960            88.76155            42.40333            97.54791            79.33821           111.29580           100.94575            19.74574            59.23227           202.72773            97.72260            67.67204            86.35305           131.80274            40.75394            59.30376            83.04944           118.51186           213.26715            72.69651            60.27510           100.41218           195.35067            93.86231            98.47419           176.78800            93.28190           111.80565            44.61034           443.72756           140.42202           165.85856            48.85189           102.26195            92.68057            89.19001           211.10269            33.35776            50.26078           291.58482           125.04045           246.78922            82.95413           191.32012           119.22491            70.85633            95.92700           123.38920            41.35108           111.22828            63.86881           322.07064            61.66368           151.98580           239.44249           117.41858            64.31645           201.19317            19.91061            39.02697            74.00828           250.79469           157.90092            52.41286           136.55242            58.69987           133.25280           151.69664           224.49285           135.43961           252.26531           293.38274           131.63500            69.00116           215.50848            62.36107           131.83882            36.03381           145.41520            94.49655            92.63238           250.00956            73.22242           177.95912           131.01321            30.27544           134.69724            52.77413            67.26849            44.75441            82.23261            48.72587           123.43507            22.38609           163.25694            80.05586            31.24926            59.20590            25.49781           171.63957            74.49215           275.42618           100.32033            87.39668           129.35788            43.06902           295.74719           157.58949           160.52049            85.19616            78.20909            56.79823            80.05073            58.03984           135.09492           158.30527           246.67125           203.01397           146.08953            75.33395            76.90899            40.61915            98.35449            70.35858           205.75583            29.38197            15.44315           107.52731            64.81377            61.41245           147.25969            68.59312            82.12609           175.25218            45.40172            96.01651            18.01641           100.88087            26.71753            42.23236           212.12993            70.46977           460.28843            78.63947           207.29521            67.38156           212.03871           110.72223           116.94716           109.27618            41.19328            83.39468           110.75968            77.96581           115.77284            26.97434            22.59056           166.77230            31.94054            62.90680            31.07034            21.83039            18.12276            60.78264           170.65417            46.84941            76.22825            18.47062            81.24457            21.71433            53.15843           143.18806           154.84085           220.43635            36.00269           114.31202            49.06279            62.49551           218.65678           146.66351           357.25649           159.96879           125.99140           166.03409            35.36480           192.56968           150.27449            43.05134           296.67355           232.95412            96.28838           309.38668           109.64564           157.97042           270.04587            39.80816            75.43144            54.88651            68.08456            37.24928            22.51475            68.62926           162.43688           160.91328           102.17574           327.51725           334.39113            66.65825           146.91605            25.66665           218.12377            60.42387           108.05678           156.68406            10.52725           127.92249            73.43194           100.79380           352.56678           112.68002            51.02540            70.79366            46.64909           218.65783             7.45167           153.87739            57.12371           124.03703            64.92567            96.65874            53.66732           178.43278            84.14369           161.82766            81.16830           126.72620           193.74194            61.05210            62.07430           136.00592            51.80787           123.57505           149.34333           208.22257            96.45702           144.06251            47.19735           109.76628            86.05444           119.29229            86.97680            26.68896            51.31688            93.51207            19.36003            72.76285           868.21338            88.92717            51.31821           120.05653           108.12262            24.38148            65.17711            82.94687           206.82717           115.44203            48.30523           285.49283            72.58238            63.89147            31.95873           190.24795            35.23020           317.15637            70.75927            91.00803            98.10413            75.05961            72.52031           121.77280           176.02815           216.30148            36.42777            75.17930           250.90353            20.49401            68.33296            95.63824           109.42697           140.39978           128.62061            95.87842            83.61941            26.83073            65.89716           122.64223            41.05971           192.92641           145.90180           104.43964            79.38811           175.39683            55.12609            36.34281            66.90146            78.85743           109.68806           166.89186            22.57081            78.62502            97.89132           136.67534            58.22346           141.82562            74.27171           117.57449            62.34799           135.29515            82.67597           152.02321           146.46703            91.97853           128.43162            90.91955            89.45854            75.30688            55.85636            86.72995           144.19281           181.67089           145.15968            62.75873            27.63208            43.86102            16.11293            37.07691            96.04485            33.09244           100.95574           146.21792            67.03286           154.42593           135.85420           152.66717           143.51520           136.97198           108.11984            82.72148            60.67468            78.43417            28.42860            59.29388           147.63815            73.76853            68.83618            71.68003            63.11401            55.49535            62.87280           277.99523            45.06299            11.79269            67.12195            94.56135            68.22546           157.32971            67.31906           378.83970            54.93067            67.61047           105.04461            42.23876            94.76900            68.73061            20.78593            76.13394            61.71528            75.65529           305.74986           211.79344            77.39908           339.68346            27.03944           135.73503            80.98812           105.73288           136.73280            49.64665           133.81016           194.67197           192.58794            26.29163            54.99719            28.73013           163.31108            96.30629           227.05812           154.99392            24.80908            41.28988            75.60203           116.62250           109.54360            52.07170           169.68981            92.12308            24.31462           226.96307           204.65085            62.54079            56.55839            58.48886            58.85512           147.25329            24.97670           106.80685            71.30625           134.34308            86.83647            64.80232           130.00539           106.04827           147.22054            73.26242            24.91338           179.57065            49.78165           244.41215            93.15751            21.30676            46.44646            72.48576           353.11180           195.63130           233.03443            44.13980           107.47175           177.42399           263.32361           100.65549            23.18318            61.83638            25.20131           182.58465           156.74501           345.14270           242.53371           208.52669            78.52421           122.04056           185.28980            33.59813            61.68953           169.03347           184.14175            47.13212            40.58947           311.13850            54.23526            40.52915            63.23019           262.56766           199.27838            15.43946            55.88220           104.43825            52.44128            41.99169            69.64254           103.06820            19.96394            32.27082           176.86093            89.94276           112.19478            72.78259            95.01087           347.83947           117.82566            90.79835            28.86356            19.79437           165.40594            26.42058            51.00103  