# vtk DataFile Version 3.0
Output from R3t
ASCII
DATASET UNSTRUCTURED_GRID
POINTS       6291 double
      0.00000000E+00      0.98900000E+01     -0.25000000E+02
      0.00000000E+00      0.98900000E+01     -0.24000000E+02
      0.00000000E+00      0.98900000E+01     -0.23000000E+02
      0.00000000E+00      0.98900000E+01     -0.22000000E+02
      0.00000000E+00      0.98900000E+01     -0.21000000E+02
      0.00000000E+00      0.98900000E+01     -0.20000000E+02
      0.00000000E+00      0.98900000E+01     -0.19000000E+02
      0.00000000E+00      0.98900000E+01     -0.18000000E+02
      0.00000000E+00      0.98900000E+01     -0.17000000E+02
      0.00000000E+00      0.98900000E+01     -0.16000000E+02
      0.00000000E+00      0.98900000E+01     -0.15000000E+02
      0.00000000E+00      0.98900000E+01     -0.14000000E+02
      0.00000000E+00      0.98900000E+01     -0.13000000E+02
      0.00000000E+00      0.98900000E+01     -0.12000000E+02
      0.00000000E+00      0.98900000E+01     -0.11000000E+02
      0.00000000E+00      0.98900000E+01     -0.10000000E+02
      0.00000000E+00      0.98900000E+01     -0.90000000E+01
      0.00000000E+00      0.98900000E+01     -0.80000000E+01
      0.00000000E+00      0.98900000E+01     -0.70000000E+01
      0.00000000E+00      0.98900000E+01     -0.60000000E+01
      0.00000000E+00      0.98900000E+01     -0.50000000E+01
      0.00000000E+00      0.98900000E+01     -0.40000000E+01
      0.00000000E+00      0.98900000E+01     -0.30000000E+01
      0.00000000E+00      0.98900000E+01     -0.20000000E+01
      0.94700000E+01      0.27090000E+02     -0.20000000E+01
      0.94700000E+01      0.27090000E+02     -0.30000000E+01
      0.94700000E+01      0.27090000E+02     -0.40000000E+01
      0.94700000E+01      0.27090000E+02     -0.50000000E+01
      0.94700000E+01      0.27090000E+02     -0.60000000E+01
      0.94700000E+01      0.27090000E+02     -0.70000000E+01
      0.94700000E+01      0.27090000E+02     -0.80000000E+01
      0.94700000E+01      0.27090000E+02     -0.90000000E+01
      0.94700000E+01      0.27090000E+02     -0.10000000E+02
      0.94700000E+01      0.27090000E+02     -0.11000000E+02
      0.94700000E+01      0.27090000E+02     -0.12000000E+02
      0.94700000E+01      0.27090000E+02     -0.13000000E+02
      0.94700000E+01      0.27090000E+02     -0.14000000E+02
      0.94700000E+01      0.27090000E+02     -0.15000000E+02
      0.94700000E+01      0.27090000E+02     -0.16000000E+02
      0.94700000E+01      0.27090000E+02     -0.17000000E+02
      0.94700000E+01      0.27090000E+02     -0.18000000E+02
      0.94700000E+01      0.27090000E+02     -0.19000000E+02
      0.94700000E+01      0.27090000E+02     -0.20000000E+02
      0.94700000E+01      0.27090000E+02     -0.21000000E+02
      0.94700000E+01      0.27090000E+02     -0.22000000E+02
      0.94700000E+01      0.27090000E+02     -0.23000000E+02
      0.94700000E+01      0.27090000E+02     -0.24000000E+02
      0.94700000E+01      0.27090000E+02     -0.25000000E+02
      0.10980000E+02      0.14860000E+02     -0.20000000E+01
      0.10980000E+02      0.14860000E+02     -0.30000000E+01
      0.10980000E+02      0.14860000E+02     -0.40000000E+01
      0.10980000E+02      0.14860000E+02     -0.50000000E+01
      0.10980000E+02      0.14860000E+02     -0.60000000E+01
      0.10980000E+02      0.14860000E+02     -0.70000000E+01
      0.10980000E+02      0.14860000E+02     -0.80000000E+01
      0.10980000E+02      0.14860000E+02     -0.90000000E+01
      0.10980000E+02      0.14860000E+02     -0.10000000E+02
      0.10980000E+02      0.14860000E+02     -0.11000000E+02
      0.10980000E+02      0.14860000E+02     -0.12000000E+02
      0.10980000E+02      0.14860000E+02     -0.13000000E+02
      0.10980000E+02      0.14860000E+02     -0.14000000E+02
      0.10980000E+02      0.14860000E+02     -0.15000000E+02
      0.10980000E+02      0.14860000E+02     -0.16000000E+02
      0.10980000E+02      0.14860000E+02     -0.17000000E+02
      0.10980000E+02      0.14860000E+02     -0.18000000E+02
      0.10980000E+02      0.14860000E+02     -0.19000000E+02
      0.10980000E+02      0.14860000E+02     -0.20000000E+02
      0.10980000E+02      0.14860000E+02     -0.21000000E+02
      0.10980000E+02      0.14860000E+02     -0.22000000E+02
      0.10980000E+02      0.14860000E+02     -0.23000000E+02
      0.10980000E+02      0.14860000E+02     -0.24000000E+02
      0.10980000E+02      0.14860000E+02     -0.25000000E+02
      0.26850000E+02      0.17850000E+02     -0.20000000E+01
      0.26850000E+02      0.17850000E+02     -0.30000000E+01
      0.26850000E+02      0.17850000E+02     -0.40000000E+01
      0.26850000E+02      0.17850000E+02     -0.50000000E+01
      0.26850000E+02      0.17850000E+02     -0.60000000E+01
      0.26850000E+02      0.17850000E+02     -0.70000000E+01
      0.26850000E+02      0.17850000E+02     -0.80000000E+01
      0.26850000E+02      0.17850000E+02     -0.90000000E+01
      0.26850000E+02      0.17850000E+02     -0.10000000E+02
      0.26850000E+02      0.17850000E+02     -0.11000000E+02
      0.26850000E+02      0.17850000E+02     -0.12000000E+02
      0.26850000E+02      0.17850000E+02     -0.13000000E+02
      0.26850000E+02      0.17850000E+02     -0.14000000E+02
      0.26850000E+02      0.17850000E+02     -0.15000000E+02
      0.26850000E+02      0.17850000E+02     -0.16000000E+02
      0.26850000E+02      0.17850000E+02     -0.17000000E+02
      0.26850000E+02      0.17850000E+02     -0.18000000E+02
      0.26850000E+02      0.17850000E+02     -0.19000000E+02
      0.26850000E+02      0.17850000E+02     -0.20000000E+02
      0.26850000E+02      0.17850000E+02     -0.21000000E+02
      0.26850000E+02      0.17850000E+02     -0.22000000E+02
      0.26850000E+02      0.17850000E+02     -0.23000000E+02
      0.26850000E+02      0.17850000E+02     -0.24000000E+02
      0.26850000E+02      0.17850000E+02     -0.25000000E+02
      0.18640000E+02      0.00000000E+00     -0.20000000E+01
      0.18640000E+02      0.00000000E+00     -0.30000000E+01
      0.18640000E+02      0.00000000E+00     -0.40000000E+01
      0.18640000E+02      0.00000000E+00     -0.50000000E+01
      0.18640000E+02      0.00000000E+00     -0.60000000E+01
      0.18640000E+02      0.00000000E+00     -0.70000000E+01
      0.18640000E+02      0.00000000E+00     -0.80000000E+01
      0.18640000E+02      0.00000000E+00     -0.90000000E+01
      0.18640000E+02      0.00000000E+00     -0.10000000E+02
      0.18640000E+02      0.00000000E+00     -0.11000000E+02
      0.18640000E+02      0.00000000E+00     -0.12000000E+02
      0.18640000E+02      0.00000000E+00     -0.13000000E+02
      0.18640000E+02      0.00000000E+00     -0.14000000E+02
      0.18640000E+02      0.00000000E+00     -0.15000000E+02
      0.18640000E+02      0.00000000E+00     -0.16000000E+02
      0.18640000E+02      0.00000000E+00     -0.17000000E+02
      0.18640000E+02      0.00000000E+00     -0.18000000E+02
      0.18640000E+02      0.00000000E+00     -0.19000000E+02
      0.18640000E+02      0.00000000E+00     -0.20000000E+02
      0.18640000E+02      0.00000000E+00     -0.21000000E+02
      0.18640000E+02      0.00000000E+00     -0.22000000E+02
      0.18640000E+02      0.00000000E+00     -0.23000000E+02
      0.18640000E+02      0.00000000E+00     -0.24000000E+02
      0.18640000E+02      0.00000000E+00     -0.25000000E+02
     -0.51140522E+00      0.71588023E+01     -0.20000000E+01
     -0.49593660E+00      0.60927425E+01     -0.20000000E+01
      0.41797281E+00      0.66361707E+01     -0.20000000E+01
      0.43302881E+00      0.55428034E+01     -0.20000000E+01
      0.13561809E+01      0.61090631E+01     -0.20000000E+01
      0.13734931E+01      0.50157223E+01     -0.20000000E+01
      0.22946745E+01      0.55837861E+01     -0.20000000E+01
      0.23105556E+01      0.45126988E+01     -0.20000000E+01
      0.32265139E+01      0.50650006E+01     -0.20000000E+01
      0.32146856E+01      0.61321849E+01     -0.20000000E+01
      0.41392408E+01      0.56152676E+01     -0.20000000E+01
      0.41270756E+01      0.66752199E+01     -0.20000000E+01
      0.50462507E+01      0.61598431E+01     -0.20000000E+01
      0.50297219E+01      0.72122270E+01     -0.20000000E+01
      0.59521252E+01      0.67000404E+01     -0.20000000E+01
      0.59630340E+01      0.56527579E+01     -0.20000000E+01
      0.68728908E+01      0.61848904E+01     -0.20000000E+01
      0.68806275E+01      0.51415218E+01     -0.20000000E+01
      0.77829501E+01      0.56725643E+01     -0.20000000E+01
      0.77944939E+01      0.46334428E+01     -0.20000000E+01
      0.86893990E+01      0.51697938E+01     -0.20000000E+01
      0.86832209E+01      0.62039514E+01     -0.20000000E+01
      0.95803132E+01      0.57034205E+01     -0.20000000E+01
      0.96043383E+01      0.46763211E+01     -0.20000000E+01
      0.10484532E+02      0.52092251E+01     -0.20000000E+01
      0.10462370E+02      0.62354564E+01     -0.20000000E+01
      0.11361191E+02      0.57398163E+01     -0.20000000E+01
      0.11385157E+02      0.47172493E+01     -0.20000000E+01
      0.12269868E+02      0.52491723E+01     -0.20000000E+01
      0.12234766E+02      0.62715667E+01     -0.20000000E+01
      0.13145121E+02      0.57852105E+01     -0.20000000E+01
      0.13105170E+02      0.67981838E+01     -0.20000000E+01
      0.13996842E+02      0.63084968E+01     -0.20000000E+01
      0.13974063E+02      0.73252275E+01     -0.20000000E+01
      0.14866600E+02      0.68365691E+01     -0.20000000E+01
      0.14844683E+02      0.78553010E+01     -0.20000000E+01
      0.15738493E+02      0.73655798E+01     -0.20000000E+01
      0.15717492E+02      0.83861582E+01     -0.20000000E+01
      0.16611680E+02      0.78942206E+01     -0.20000000E+01
      0.16592536E+02      0.89174787E+01     -0.20000000E+01
      0.17469384E+02      0.84568878E+01     -0.20000000E+01
      0.17466436E+02      0.94547743E+01     -0.20000000E+01
[...]
POINT_DATA      6291
CELL_DATA     33106
SCALARS Resistivity(ohm.m) double 1
LOOKUP_TABLE default
            97.10214           156.72926           167.14213            55.97522           252.56605           259.82045           176.05105            11.92989            79.19561           262.57341           105.14505            64.79541             9.59193             6.23082            89.57889            55.32382            79.96776           156.17499           168.05457            46.18402           136.98700            26.56150           342.50886            87.13738           205.35986            54.76527            26.36474           187.45091            57.96710             9.60193            62.85910           122.24334            71.15010            55.18211            79.18968           189.93740            66.96425            77.48788            90.25084            23.22832           108.96011            44.78783            63.32874            86.14590            83.66797           122.76379           141.09006            22.39514            69.28067           142.66657            10.30105           158.91727           114.16156            85.97556           161.78664            22.88583           167.29147           176.28393           363.83185           564.88441           140.65391           207.05562            54.55557            64.73904             3.92967            68.08072            69.71671            95.28660            80.03792           130.13080           334.08860           137.40066            51.03369           123.47223            27.88201            46.02145           127.37597           226.56974            21.78173            24.86944            60.82335            75.04963            19.38210            45.39173           322.86880            98.54672           212.17405            99.66997           245.30673           168.41250            47.84906            68.80779           146.75512            85.85950           117.36359            82.59454           330.98861            62.62413            55.14880            69.42674            66.61074            60.60878           192.64584            49.01957            30.30400           245.29959            63.80935            76.39316           121.52942           438.96555            93.14219            73.06089            60.56311            22.59696           122.73496            65.05993            74.68321            88.63029            22.59415            82.65359            18.75056            26.35365            41.70647            84.93527            87.35909           125.15430            76.05605            54.22096            78.83280            54.61679             6.45249            84.40838            65.33435           205.44807           108.41322            72.65937           205.70674            54.30956            94.64703           141.14527            86.09817            27.72825           127.80101            73.61023           112.31903           229.57454           108.20468            68.10623           103.91870            22.24460            61.78142            87.84785            56.25349            97.93075            70.87022            57.57433            91.12153           346.55600           103.66606            21.45022           181.56896           190.90217           220.88763           195.24301           253.19722           144.17077           117.80968           132.42258           155.51052           124.60579            42.38867           134.55590           171.34715            89.12675            56.92916           227.63880            42.27811           112.28776           139.44557            87.16607            49.17980            39.56996           142.87529           158.26673           119.40899            24.23387           107.58326           151.15781            17.42645            77.40185            52.56515            57.12758           162.49571            70.13701            64.73614            49.29929           162.52044            18.76273           142.02625            46.80997           112.95239            41.83101            20.95259            22.20551           111.32428           182.05768            21.51047            73.78075            40.77389            46.90974           359.09780            62.23013           151.12490           111.93414            87.28949           246.33509           102.71410            90.33199            52.54531            66.75924           177.47546           137.96830            98.01258            56.31732           203.89518            65.48330            26.96171           187.21144            26.12466            78.80828            56.69546            56.10399           147.61186            25.70465            88.73713            98.21021            57.67819            52.98818            75.80007            10.25478            80.23697            89.83229            80.81870            38.97191            70.37067            75.34346            70.13839           189.56548            58.69283           186.09215           117.40289            21.84462           128.26625            70.94098            77.16654            72.86066           126.50114            19.07564            63.84057            70.57339           101.39500            47.94786            95.42683           100.77269            86.04066            67.62907           233.69359            93.70763           136.98422            69.39842           142.81240            65.80345            15.65640            37.18255           271.71174           152.91929            19.62530            87.64495            52.80378            54.22647           372.57343            28.96221            67.12869           219.11251           185.54711            50.24296            71.05780            94.42037           205.52503           131.81105            68.44402           251.46941           154.13975           138.85294           137.70118           114.36661            24.20128            43.57775           260.75849            15.18218            87.91778            25.33979            20.74147            63.84905           241.69412           123.87732            78.87808            59.54892            58.63410           148.54753           317.59020           114.80232            84.09011            84.31512           103.53913           316.75386           990.82070            87.65998            58.10535           179.80365           261.00332            17.45513           172.61407           141.15072           240.85313           132.84548            49.18513           240.97220            97.14403            64.27052           116.15402          1324.20135            26.45992           136.78335           300.51472           102.89040           179.34647            61.39504            40.20153           111.00636            61.35431            99.97657            74.85255           149.35506           262.92286           105.24577            98.22353            51.82072            94.52658            41.50404            65.65857           138.35726           307.14323            33.74402            19.94102            53.90986            30.47584            24.44135           156.26963            77.13903            48.32139            50.20262            56.13073            55.60259           153.14619           310.20917            85.42842            92.84087           100.43773            59.89333            94.33739           117.40425            51.44298           154.21742            62.42066            37.42205            73.78577            68.79953            54.16980            59.36132            74.17134            43.61164            46.69604            24.88262            21.18458            63.89069            90.26529            41.29974           106.07930            78.27774            21.69662           103.07867            86.20223            24.21609           216.38569            87.97894            39.19860           132.01409            64.09990            70.52586            92.50976            71.48806            52.29074           192.38269           257.67557           146.40727            76.06099           175.51554            26.60816           270.00395            33.85733            51.00758           137.22555           146.34363           195.31398            81.95693           145.76199            38.28366            53.01863           145.70995           101.65666            30.90959            41.80694           328.28170           140.10730            77.28170           199.15202           218.49100            24.13904            93.62330           105.10245            46.59930            41.64579           202.47386            71.53585           123.08330            31.35708           197.73636           144.87891           101.10366           108.86505           125.55423            81.16251            54.53350            36.90615            96.26605            75.19974           131.07477           119.30286            70.07248             4.53680            36.78753           276.93479           101.59852            91.38355           165.04254           226.70073           106.73821            89.42241           147.34726           253.66030            22.17225           141.07909            80.56575           130.66761            83.35485            41.49585            85.94079            71.07340            64.68893           124.63994            79.90882            93.88878            63.39085           127.85846           269.66624            79.70946            60.90103            89.17668            51.05471            96.95458            72.33873            88.26476           209.53950            97.88799            97.52936           145.67706           159.11590            71.71139            85.95255            84.86194           103.94614            96.37517            34.74150           127.20199            72.99429            10.70529            19.89921           131.18340            54.14961           251.01192            73.31054            42.48450           148.19387           107.98103            72.75298            25.53429           309.49182            93.75002            27.76075            63.68205            88.05387            39.69313           102.98797            68.81103           109.36503            99.32649            17.21974            58.43925           203.93644            97.80051            60.65803            82.15212           128.99203            40.02270            56.68373            81.73683           115.44540           207.20773            69.32116            59.37476           100.67097           189.82690            99.05889            97.61232           172.43350            81.47306           111.39822            36.63576           429.68516           138.98841           167.16698            21.22698           101.17561            90.52278            87.47569           206.00115            32.57369            46.99227           284.14623           121.67102           246.35420            94.48987           194.83322           117.70401            67.32275            83.97408           119.34303            39.13237           110.07222            63.87727           308.36942            61.28438           148.52427           236.99174           116.76207            64.12593           199.98756            19.82332            38.97937            70.98346           250.41751           153.77235            51.83963           133.67097            57.77535           122.09957           151.07411           182.44842           136.44107           253.05145           223.07872           128.22716            68.20428           212.54731            61.86010           136.60855            33.68587           141.38517            93.28201            90.78552           246.01479            72.77022           179.73326           129.96711            26.81649           133.12199            51.83517            69.34457            42.66913            72.88729            47.95917           122.12964            22.44462           158.82596            79.61111            30.70628            60.03078            23.68672           168.67192            73.21578           269.75051            97.78224            86.50440           129.83256            43.18928           303.87132           148.25551           154.48642            83.86094            75.30801            55.63546            77.51774            57.16356           133.06313           163.44218           240.83795           201.32236           140.86757            54.78961            58.42602            34.39704            97.49069            68.85492           201.23811            27.96687            15.29105           105.52459            64.46286            62.30282           144.07115            68.09656            82.96614           160.19708            45.25198            93.96283            16.20360            98.52450            22.90969            32.61714           209.69836            70.21993           431.15589            83.33967           205.19113            66.86844           206.53221           108.22947           115.56824           105.83325            41.05538            82.25433           108.52053            77.25116           113.91898            26.70877            22.29749           164.27253            31.73964            60.76708            29.93343            17.87483            17.35365            60.13626           178.96965            42.69333            75.81381            18.16883            80.18425            21.63032            52.35942           141.39240           154.46101           209.73104            21.75063           112.62206            47.33140            62.20030           192.42499           130.52683           336.45981           156.51011           128.96610           164.42243            33.92959           187.43529           148.93472            43.66156           292.15304           222.14072            95.37699           300.19800           107.50715           155.59072           270.62051            41.52342            66.82586            51.85570            68.14376            36.88469            22.67438            66.67204           160.62569           153.56294           101.14813           333.46424           323.61926            65.16360           142.69765            24.88354           211.61887            60.45123           108.92975           152.54131            10.63260           101.50792            72.80375            98.95861           359.93298           127.82255            50.60553            69.68226            44.94989           215.95769             7.82134           147.62503            55.82349           114.30713            64.36276            96.67868            50.63268           179.47185            82.70700           159.51019            80.66781           124.48394           191.42392            59.14173            61.71267           134.01418            49.33574           124.57818           147.76419           206.79698            93.36103           142.01462            66.75433           105.15103            82.05266           114.61653            85.41833            26.54575            50.05832            91.71285            19.32060            72.21106           974.81657            88.12932            51.35511           113.40419           105.74133            18.84640            63.00460            77.95115           202.03818           108.81098            48.31879           280.93948            71.39124            62.03424            30.98112           187.62118            29.25957           298.83586            69.75774            89.53615            95.26600            73.72544            69.61777           116.88859           170.26524           212.80943            36.01417            74.22195           248.72857            20.55310            48.10215            96.32194           107.24040           139.54885           126.87908            93.40745            80.46356            24.39805            65.35080           125.53426            38.19107           184.32414           136.41817           107.13650            69.18358           170.24518            53.64532            35.86668            57.56457            76.65961            99.54067           161.44183            22.70747            78.08714            97.39942           131.35484            56.30580           138.11915            70.20813           115.10796            60.90620           131.24691            80.18667           150.49414           143.54670            90.48589           126.13797            89.80693            86.21254            74.49045            55.06412            85.96769           140.38525           177.78825           144.12867            62.32873            25.66253            41.97324            16.71163            36.82814            93.30242            29.25364            94.35272           143.16572            64.26649           149.80047           134.55071           127.14693           147.01681           132.62377           111.38027            79.55640            56.95672            76.52252            28.20751            58.07930           148.83476            72.51094            65.69623            69.59125            66.13095            38.57611            61.69903           269.58768            44.70660            11.89644            65.83448            88.83668            67.54778           133.36998            67.59240           355.34601            54.24704            67.17420            97.70704            42.76490            97.54640            68.84485            88.36198            75.37176            57.38939            68.04053           279.59571           208.96384            75.80477           284.49561            28.42968           133.98101            79.39030           107.31684           132.96913            47.97087           132.88460           191.22100           190.01112            24.52888            54.03554            28.04986           160.46020            94.33119           223.70369           156.54860            25.13321            39.24524            71.78964           115.49271            93.20982            48.88093           167.47118            90.90751            24.46381           220.01022           201.26082            62.05902            55.46058            57.99748            59.69520           148.58399            24.79383           108.92010            70.12358           120.13925            86.80432            64.08025           127.37147           104.49371           145.47883            71.98471            24.87119           176.78434            49.24387           228.50437            93.58616            19.63772            47.04755            71.23269           348.91727           192.62687           225.83262            43.53040            96.32902           173.72781           255.94334            98.91509            23.31055            61.57950            25.22685           179.38878           156.10968           336.55947           235.13360           206.12640            78.05876           119.70647           164.58179            51.56650            59.20848           166.46036           180.14511            50.19864            38.36770           303.24238            53.02884            42.59625            63.07128           257.94609           196.46345            15.89200            54.61126            85.68607            51.15870            41.06168            71.54888           102.01324            17.46740            29.94494           173.40693            86.99564           113.03237            68.44559            93.12621           326.78223           115.54602            94.08267            37.79756            18.62819           165.17825            26.78627            52.14906  