# vtk DataFile Version 3.0
Output from R3t
ASCII
DATASET UNSTRUCTURED_GRID
POINTS       6291 double
      0.00000000E+00      0.98900000E+01     -0.25000000E+02
      0.00000000E+00      0.98900000E+01     -0.24000000E+02
      0.00000000E+00      0.98900000E+01     -0.23000000E+02
      0.00000000E+00      0.98900000E+01     -0.22000000E+02
      0.00000000E+00      0.98900000E+01     -0.21000000E+02
      0.00000000E+00      0.98900000E+01     -0.20000000E+02
      0.00000000E+00      0.98900000E+01     -0.19000000E+02
      0.00000000E+00      0.98900000E+01     -0.18000000E+02
      0.00000000E+00      0.98900000E+01     -0.17000000E+02
      0.00000000E+00      0.98900000E+01     -0.16000000E+02
      0.00000000E+00      0.98900000E+01     -0.15000000E+02
      0.00000000E+00      0.98900000E+01     -0.14000000E+02
      0.00000000E+00      0.98900000E+01     -0.13000000E+02
      0.00000000E+00      0.98900000E+01     -0.12000000E+02
      0.00000000E+00      0.98900000E+01     -0.11000000E+02
      0.00000000E+00      0.98900000E+01     -0.10000000E+02
      0.00000000E+00      0.98900000E+01     -0.90000000E+01
      0.00000000E+00      0.98900000E+01     -0.80000000E+01
      0.00000000E+00      0.98900000E+01     -0.70000000E+01
      0.00000000E+00      0.98900000E+01     -0.60000000E+01
      0.00000000E+00      0.98900000E+01     -0.50000000E+01
      0.00000000E+00      0.98900000E+01     -0.40000000E+01
      0.00000000E+00      0.98900000E+01     -0.30000000E+01
      0.00000000E+00      0.98900000E+01     -0.20000000E+01
      0.94700000E+01      0.27090000E+02     -0.20000000E+01
      0.94700000E+01      0.27090000E+02     -0.30000000E+01
      0.94700000E+01      0.27090000E+02     -0.40000000E+01
      0.94700000E+01      0.27090000E+02     -0.50000000E+01
      0.94700000E+01      0.27090000E+02     -0.60000000E+01
      0.94700000E+01      0.27090000E+02     -0.70000000E+01
      0.94700000E+01      0.27090000E+02     -0.80000000E+01
      0.94700000E+01      0.27090000E+02     -0.90000000E+01
      0.94700000E+01      0.27090000E+02     -0.10000000E+02
      0.94700000E+01      0.27090000E+02     -0.11000000E+02
      0.94700000E+01      0.27090000E+02     -0.12000000E+02
      0.94700000E+01      0.27090000E+02     -0.13000000E+02
      0.94700000E+01      0.27090000E+02     -0.14000000E+02
      0.94700000E+01      0.27090000E+02     -0.15000000E+02
      0.94700000E+01      0.27090000E+02     -0.16000000E+02
      0.94700000E+01      0.27090000E+02     -0.17000000E+02
      0.94700000E+01      0.27090000E+02     -0.18000000E+02
      0.94700000E+01      0.27090000E+02     -0.19000000E+02
      0.94700000E+01      0.27090000E+02     -0.20000000E+02
      0.94700000E+01      0.27090000E+02     -0.21000000E+02
      0.94700000E+01      0.27090000E+02     -0.22000000E+02
      0.94700000E+01      0.27090000E+02     -0.23000000E+02
      0.94700000E+01      0.27090000E+02     -0.24000000E+02
      0.94700000E+01      0.27090000E+02     -0.25000000E+02
      0.10980000E+02      0.14860000E+02     -0.20000000E+01
      0.10980000E+02      0.14860000E+02     -0.30000000E+01
      0.10980000E+02      0.14860000E+02     -0.40000000E+01
      0.10980000E+02      0.14860000E+02     -0.50000000E+01
      0.10980000E+02      0.14860000E+02     -0.60000000E+01
      0.10980000E+02      0.14860000E+02     -0.70000000E+01
      0.10980000E+02      0.14860000E+02     -0.80000000E+01
      0.10980000E+02      0.14860000E+02     -0.90000000E+01
      0.10980000E+02      0.14860000E+02     -0.10000000E+02
      0.10980000E+02      0.14860000E+02     -0.11000000E+02
      0.10980000E+02      0.14860000E+02     -0.12000000E+02
      0.10980000E+02      0.14860000E+02     -0.13000000E+02
      0.10980000E+02      0.14860000E+02     -0.14000000E+02
      0.10980000E+02      0.14860000E+02     -0.15000000E+02
      0.10980000E+02      0.14860000E+02     -0.16000000E+02
      0.10980000E+02      0.14860000E+02     -0.17000000E+02
      0.10980000E+02      0.14860000E+02     -0.18000000E+02
      0.10980000E+02      0.14860000E+02     -0.19000000E+02
      0.10980000E+02      0.14860000E+02     -0.20000000E+02
      0.10980000E+02      0.14860000E+02     -0.21000000E+02
      0.10980000E+02      0.14860000E+02     -0.22000000E+02
      0.10980000E+02      0.14860000E+02     -0.23000000E+02
      0.10980000E+02      0.14860000E+02     -0.24000000E+02
      0.10980000E+02      0.14860000E+02     -0.25000000E+02
      0.26850000E+02      0.17850000E+02     -0.20000000E+01
      0.26850000E+02      0.17850000E+02     -0.30000000E+01
      0.26850000E+02      0.17850000E+02     -0.40000000E+01
      0.26850000E+02      0.17850000E+02     -0.50000000E+01
      0.26850000E+02      0.17850000E+02     -0.60000000E+01
      0.26850000E+02      0.17850000E+02     -0.70000000E+01
      0.26850000E+02      0.17850000E+02     -0.80000000E+01
      0.26850000E+02      0.17850000E+02     -0.90000000E+01
      0.26850000E+02      0.17850000E+02     -0.10000000E+02
      0.26850000E+02      0.17850000E+02     -0.11000000E+02
      0.26850000E+02      0.17850000E+02     -0.12000000E+02
      0.26850000E+02      0.17850000E+02     -0.13000000E+02
      0.26850000E+02      0.17850000E+02     -0.14000000E+02
      0.26850000E+02      0.17850000E+02     -0.15000000E+02
      0.26850000E+02      0.17850000E+02     -0.16000000E+02
      0.26850000E+02      0.17850000E+02     -0.17000000E+02
      0.26850000E+02      0.17850000E+02     -0.18000000E+02
      0.26850000E+02      0.17850000E+02     -0.19000000E+02
      0.26850000E+02      0.17850000E+02     -0.20000000E+02
      0.26850000E+02      0.17850000E+02     -0.21000000E+02
      0.26850000E+02      0.17850000E+02     -0.22000000E+02
      0.26850000E+02      0.17850000E+02     -0.23000000E+02
      0.26850000E+02      0.17850000E+02     -0.24000000E+02
      0.26850000E+02      0.17850000E+02     -0.25000000E+02
      0.18640000E+02      0.00000000E+00     -0.20000000E+01
      0.18640000E+02      0.00000000E+00     -0.30000000E+01
      0.18640000E+02      0.00000000E+00     -0.40000000E+01
      0.18640000E+02      0.00000000E+00     -0.50000000E+01
      0.18640000E+02      0.00000000E+00     -0.60000000E+01
      0.18640000E+02      0.00000000E+00     -0.70000000E+01
      0.18640000E+02      0.00000000E+00     -0.80000000E+01
      0.18640000E+02      0.00000000E+00     -0.90000000E+01
      0.18640000E+02      0.00000000E+00     -0.10000000E+02
      0.18640000E+02      0.00000000E+00     -0.11000000E+02
      0.18640000E+02      0.00000000E+00     -0.12000000E+02
      0.18640000E+02      0.00000000E+00     -0.13000000E+02
      0.18640000E+02      0.00000000E+00     -0.14000000E+02
      0.18640000E+02      0.00000000E+00     -0.15000000E+02
      0.18640000E+02      0.00000000E+00     -0.16000000E+02
      0.18640000E+02      0.00000000E+00     -0.17000000E+02
      0.18640000E+02      0.00000000E+00     -0.18000000E+02
      0.18640000E+02      0.00000000E+00     -0.19000000E+02
      0.18640000E+02      0.00000000E+00     -0.20000000E+02
      0.18640000E+02      0.00000000E+00     -0.21000000E+02
      0.18640000E+02      0.00000000E+00     -0.22000000E+02
      0.18640000E+02      0.00000000E+00     -0.23000000E+02
      0.18640000E+02      0.00000000E+00     -0.24000000E+02
      0.18640000E+02      0.00000000E+00     -0.25000000E+02
     -0.51140522E+00      0.71588023E+01     -0.20000000E+01
     -0.49593660E+00      0.60927425E+01     -0.20000000E+01
      0.41797281E+00      0.66361707E+01     -0.20000000E+01
      0.43302881E+00      0.55428034E+01     -0.20000000E+01
      0.13561809E+01      0.61090631E+01     -0.20000000E+01
      0.13734931E+01      0.50157223E+01     -0.20000000E+01
      0.22946745E+01      0.55837861E+01     -0.20000000E+01
      0.23105556E+01      0.45126988E+01     -0.20000000E+01
      0.32265139E+01      0.50650006E+01     -0.20000000E+01
      0.32146856E+01      0.61321849E+01     -0.20000000E+01
      0.41392408E+01      0.56152676E+01     -0.20000000E+01
      0.41270756E+01      0.66752199E+01     -0.20000000E+01
      0.50462507E+01      0.61598431E+01     -0.20000000E+01
      0.50297219E+01      0.72122270E+01     -0.20000000E+01
      0.59521252E+01      0.67000404E+01     -0.20000000E+01
      0.59630340E+01      0.56527579E+01     -0.20000000E+01
      0.68728908E+01      0.61848904E+01     -0.20000000E+01
      0.68806275E+01      0.51415218E+01     -0.20000000E+01
      0.77829501E+01      0.56725643E+01     -0.20000000E+01
      0.77944939E+01      0.46334428E+01     -0.20000000E+01
      0.86893990E+01      0.51697938E+01     -0.20000000E+01
      0.86832209E+01      0.62039514E+01     -0.20000000E+01
      0.95803132E+01      0.57034205E+01     -0.20000000E+01
      0.96043383E+01      0.46763211E+01     -0.20000000E+01
      0.10484532E+02      0.52092251E+01     -0.20000000E+01
      0.10462370E+02      0.62354564E+01     -0.20000000E+01
      0.11361191E+02      0.57398163E+01     -0.20000000E+01
      0.11385157E+02      0.47172493E+01     -0.20000000E+01
      0.12269868E+02      0.52491723E+01     -0.20000000E+01
      0.12234766E+02      0.62715667E+01     -0.20000000E+01
      0.13145121E+02      0.57852105E+01     -0.20000000E+01
      0.13105170E+02      0.67981838E+01     -0.20000000E+01
      0.13996842E+02      0.63084968E+01     -0.20000000E+01
      0.13974063E+02      0.73252275E+01     -0.20000000E+01
      0.14866600E+02      0.68365691E+01     -0.20000000E+01
      0.14844683E+02      0.78553010E+01     -0.20000000E+01
      0.15738493E+02      0.73655798E+01     -0.20000000E+01
      0.15717492E+02      0.83861582E+01     -0.20000000E+01
      0.16611680E+02      0.78942206E+01     -0.20000000E+01
      0.16592536E+02      0.89174787E+01     -0.20000000E+01
      0.17469384E+02      0.84568878E+01     -0.20000000E+01
      0.17466436E+02      0.94547743E+01     -0.20000000E+01
[...]
POINT_DATA      6291
CELL_DATA     33106
SCALARS Resistivity(ohm.m) double 1
LOOKUP_TABLE default
           101.95438           164.53084           174.14212            55.78570           262.59181           274.20514           170.46406            11.58036            75.53744           274.47561           108.68076            65.29081             9.24988             5.82976            89.29392            54.66143            77.27972           156.68148           169.29695            44.78868           142.74342            26.63757           369.96312            87.74833           341.91762            55.02412            25.89050           195.93104            58.10082             9.17491            61.53814           124.62524            71.43507            54.51797            80.10215           196.61905            64.58991            77.54699            91.44716            22.53929           110.40749            44.05043            63.46911            86.98204            83.09630           127.69495           145.14189            21.58301            69.22861           145.99333             9.91351           161.99049           118.01150            85.36390           160.29114            22.89507           138.11038           172.79252           361.69347           596.06379           144.73030           163.96813            53.76425            64.27190             3.73052            68.33453            69.83956            94.63934            80.99919           133.78833           339.83092           138.73050            51.26448           125.25698            25.65288            45.47368           131.35934           231.64064            21.45180            23.89194            61.27402            74.93254            18.62420            44.66150           357.03028            99.14785           174.91552           100.23207           251.30400           178.14315            46.88790            66.41567           148.38264            91.55830           119.45611            79.28390           359.71653            63.07043            54.91219            69.93046            67.30033            59.29117           189.12647            48.42623            30.43896           319.24693            63.69915            73.21854           124.89915           452.26091            90.12544            73.28612            61.83211            22.03427           126.30390            64.34348            75.27794            88.03629            22.25074            73.44716            18.39977            26.16228            40.61223            85.92319            77.46721           128.12438            74.59529            53.34989            79.61682            54.00977             5.97069            81.35855            64.77384           208.02242           104.48411            75.05986           214.90128            54.80079            93.01052           141.71303            85.77018            27.31565           156.75998            73.86964           107.72999           233.07053           184.08727            67.87546           100.52276            22.08144            62.03991            81.17762            56.04960            98.64588            68.00294            57.50488            93.14818           390.68091           107.01701            21.00099           187.78557           201.77410           159.54599           272.44148           266.91607           143.89931           164.39656           129.84459           159.73031           126.33125            41.22601           132.70840           177.41155            89.35297            57.11573           237.68368            42.09085           113.83119           141.56301            88.62173            48.59427            39.25970           145.12054           161.99050           123.10232            23.44358           103.25249           156.44606            17.03471            78.16650            52.82127            57.21040           167.25354            60.22581            64.79514            48.67723           170.10404            18.31302           145.74065            45.79734           114.91429            41.68513            20.65520            21.72909           116.01538           141.60241            21.05463            73.18096            40.16795            46.64841           363.89634            62.58481           157.43141           107.85984            89.33247           252.39110           104.30836            92.04859            52.28705            66.97010           183.25732           140.64739            98.05583            56.63670           208.38893            65.52736            26.91226           194.06146            25.74901            79.77525            56.97829            58.34146           153.48770            23.04532            92.83330            99.23431            56.92632            52.86738            73.13053             9.93757            80.37405            92.24716            81.41838            36.76636            73.39326            74.44660            69.14183           187.30317            58.43321           188.11155           123.25425            20.97202           127.52306            71.47159            78.11807            68.06778           128.29281            18.72880            63.47621            71.33986            93.75272            47.36633            98.53600           101.65467            81.46540            68.03043           241.59114            88.85635           140.79568            69.49905           145.78233            64.98447            14.21066            37.07502           305.42162           155.37527            19.14408            88.16794            52.88243            54.48216           386.18045            28.69603            67.99995           221.38960           191.10723            49.40289            70.25710            87.74212           177.59033           136.77213            71.04300           262.05857           158.02615           144.09180           119.66105           115.60208            24.14538            43.00388           292.21703            14.86164            84.28277            25.37576            20.71656            66.35554           248.13728           125.53639            77.11808            54.48637            58.64051           152.94827           351.68352           117.31132            81.58616            83.80498           105.13683           333.65875          1087.46698            82.77699            58.37718           195.34095           258.53412            15.93339           182.26172           144.33549           239.52506           134.25050            48.28827           252.79235            97.91099            62.45636           118.74764          1507.12472            26.30907           137.85151           302.03517           164.15794           179.88857            60.79191            38.97965           117.20592            60.63909           102.16107            73.89962           151.89979           278.34315           107.27355            99.34889            51.01692            94.62803            41.16218            65.36721           141.65529           331.61597            33.33969            19.83044            53.98297            30.27275            23.59955           163.95711            85.73520            46.99579            48.06278            54.61541            55.74522           151.82918           323.18679            84.32101            96.25126           101.11008            60.09401            95.30821           119.08024            49.43822           155.03054            66.04698            36.85674            74.06093            69.14075            54.05487            59.67880            74.73826            43.50634            45.02734            21.29395            19.30577            57.43880            85.72974            41.47179           106.68539            72.38180            20.67712           105.10188            87.26991            24.16753           216.74207            89.35465            38.32749           133.38268            63.72403            70.22423            95.06539            71.57399            50.17005           196.08717           254.68346           145.71352            75.91980           171.07883            26.23069           285.09086            33.56990            49.27500           136.55078           146.74123           196.04272            82.86442           145.60012            38.14815            49.70467           151.07187           102.98804            29.74815            41.46947           347.94262           141.54494            77.56957           200.09494           220.07557            23.69331            91.84990           107.21203            46.03831            42.05041           200.75432            71.47441           124.68354            30.72434           197.78373           147.87939           101.39671           113.26214           126.64051            83.27936            54.10579            36.68410            97.57342            71.96128           132.56444           118.83948            70.63748             4.26625            36.86937           292.77358            95.43394            92.65125           165.93118           225.65196           108.31532            95.06979           144.62962           256.98425            21.52651           139.68465            81.91641           132.28547            80.29019            41.53126            86.18543            71.55319            65.22826           127.59750            80.92710            93.33761            63.61100           129.10372           244.33755            80.51389            60.96083            89.80251            50.81217            92.62312            66.34690            87.82987           216.85597            97.03550            95.45150           147.25155           160.15423            71.37896            81.15131            85.60483           106.00886            95.73546            34.52959           133.15650            73.76986            10.38722            19.73629           132.79319            53.39398           265.45924            73.47958            41.77760           150.81289           110.09514            70.09177            25.55438           301.58764            94.53869            27.19576            63.16027            89.38621            40.48138           104.35002            62.10993           111.52416           100.93465            17.18935            58.68091           205.55521            96.66672            60.26615            81.86325           128.31467            37.51770            52.61950            82.54188           119.14176           210.22476            68.71981            59.80259           100.16827           176.95161            96.12064            96.13079           178.37349            78.25781           116.76490            34.80702           495.33983           139.03341           173.10474            19.91718           100.86129            89.72888            89.09139           214.59851            29.22744            46.02708           244.63235           118.19393           256.11702            87.91754           227.89142           119.48022            67.07514            77.52887           115.37912            37.50369           111.65429            63.42271           329.23122            61.40620           154.19018           261.23053           110.07928            64.12806           198.53112            19.44975            38.87713            70.49839           261.03889           154.30454            51.79824           137.78115            57.57431           117.18589           154.27746           214.10893           122.10897           233.10455           274.10068           132.93231            68.75823           221.46270            61.81673           139.58500            33.68851           197.76436            92.57918            92.11314           239.36041            73.08473           183.70970           130.59053            25.98347           131.07044            51.74827            71.84309            42.53783            75.27737            47.41417           125.33173            22.19807           159.53663            79.42618            30.79101            60.32980            22.94833           172.65231            72.66051           286.17702           100.26470            86.71325           128.70972            43.23550           311.99386           152.27620           158.08040            84.77737            72.19781            53.00162            74.71185            57.32865           134.77810           161.80081           222.84781           202.90770           142.91640           111.16970            58.13242            30.55829            97.57731            70.21922           209.67495            27.89220            15.07393           106.70168            64.29642            63.60930           148.85177            68.63580            81.59665           144.79842            45.17965            95.12917            15.95055           101.04396            22.15466            30.69646           214.37509            70.09019           420.71231            79.00628           210.32530            67.33434           210.27206           111.04195           118.79636           104.93858            41.23914            83.37903           108.66541            78.06131           115.41731            26.77649            22.15504           168.50350            31.93521            60.83647            29.78667            17.37963            17.01978            59.72767           187.68448            40.91511            76.69186            17.26290            81.01779            21.28231            48.31551           143.42044           156.99959           216.11370            20.13945           113.60431            46.86729            62.38737           197.02253           130.04719           359.44586           154.57879           131.02855           141.89559            33.86934           192.92699           146.06955            42.41651           294.09946           173.63982            95.81994           307.21896           108.74818           161.14831           302.24589            38.31531            58.20802            50.77871            68.20026            36.46203            22.40354            65.62003           164.93717           142.07240           101.85355           386.48205           359.50113            65.59924           145.55538            24.49278           211.22957            61.84280           109.03903           145.51034            10.30050           107.35024            72.49179           100.60497           339.81862           118.34054            50.51959            69.76892            44.90277           220.27822             7.37380           153.63460            55.64196           115.27022            64.35252            95.35013            47.52972           182.91548            83.65504           164.89898            80.88352           127.02253           196.36368            59.27209            61.80350           104.01608            48.50554           125.35479           150.04794           212.06566           118.78320           146.38262            76.33661           100.06097            82.20279           117.53880            86.09833            26.57087            49.80466            89.70069            18.29805            72.51208          1040.86998            91.10752            65.95891           114.38924           107.34412            18.11440            63.01600            78.09562           203.80020           103.31997            48.19966           271.76023            67.97412            62.10799            30.54646           193.99931            28.81426           295.40246            70.31873            91.05591            95.74174            73.94846            69.85498           112.13363           158.92045           216.17008            32.77691            75.07538           274.05756            20.37791            47.59057           100.46746           103.37054           135.62837           127.74751            95.23695            81.86257            24.72043            65.46601           126.66710            38.60566           168.94461           139.87266           108.04429            68.11317           178.77174            53.65443            35.93579            56.92729            73.99723            98.39086           161.35811            22.36381            78.73118            96.82350           129.25067            55.88374           144.17693            69.85470           116.46334            60.04385           122.92876            80.01158           154.50060           146.50825            91.23776           126.51184            91.57049            85.04400            74.73732            54.73138            85.49184           142.70751           183.81917           145.12045            62.26392            25.89456            42.16356            15.82559            36.95372            92.72951            28.96283            94.27398           145.92997            64.15827           149.05154           136.28745           133.02031           149.53119           136.81950           113.73868            80.60465            53.93074            77.67290            28.25560            58.26901           149.93745            73.24832            64.56882            69.11334            66.47068            38.22946            61.45807           265.66829            44.35761            11.57185            65.31945            83.81765            67.45003           105.66125            67.66366           403.12923            54.32459            66.88870           102.03510            41.46052            91.80202            68.04034           653.54625            75.21654            55.04330            65.34764           316.03914           221.68165            76.18457           239.08666            26.69971           130.27790            78.18040           108.90366           130.26237            50.29468           132.63698           196.76257           194.11134            24.30563            53.97589            27.98043           162.94077            95.93999           227.28426           158.09537            24.87984            38.05076            71.17438           118.11880            84.38875            47.81502           170.29873            91.50863            24.17025           228.42654           203.75212            62.09559            55.28232            58.31393            59.70544           150.00562            24.74965           109.68668            70.24664           118.91782            88.72903            64.61450           130.83556           105.02637           149.00619            72.53483            21.13981           180.68285            49.24268           209.40054            94.94918            19.17402            44.88351            71.01827           374.35654           195.15399           236.77242            43.15892            95.85049           178.47512           241.22384           100.22650            23.03519            61.88764            23.81144           183.66139           157.20283           369.52076           208.74013           211.95785            77.65302           119.26686           166.93803            95.57084            58.70205           170.88147           185.42513            51.76870            34.03258           370.76359            50.87740            43.46460            62.73889           284.95977           203.74347            15.07875            54.46840           109.25996            50.39679            39.19544            67.67829           102.71847            17.28076            29.88337           177.18301            86.36756           115.21700            68.25476            92.32708           347.09679           120.27537            87.36433            45.74460            17.48026           163.20263            26.58021            53.99225  