# vtk DataFile Version 3.0
Output from R3t
ASCII
DATASET UNSTRUCTURED_GRID
POINTS       6291 double
      0.00000000E+00      0.98900000E+01     -0.25000000E+02
      0.00000000E+00      0.98900000E+01     -0.24000000E+02
      0.00000000E+00      0.98900000E+01     -0.23000000E+02
      0.00000000E+00      0.98900000E+01     -0.22000000E+02
      0.00000000E+00      0.98900000E+01     -0.21000000E+02
      0.00000000E+00      0.98900000E+01     -0.20000000E+02
      0.00000000E+00      0.98900000E+01     -0.19000000E+02
      0.00000000E+00      0.98900000E+01     -0.18000000E+02
      0.00000000E+00      0.98900000E+01     -0.17000000E+02
      0.00000000E+00      0.98900000E+01     -0.16000000E+02
      0.00000000E+00      0.98900000E+01     -0.15000000E+02
      0.00000000E+00      0.98900000E+01     -0.14000000E+02
      0.00000000E+00      0.98900000E+01     -0.13000000E+02
      0.00000000E+00      0.98900000E+01     -0.12000000E+02
      0.00000000E+00      0.98900000E+01     -0.11000000E+02
      0.00000000E+00      0.98900000E+01     -0.10000000E+02
      0.00000000E+00      0.98900000E+01     -0.90000000E+01
      0.00000000E+00      0.98900000E+01     -0.80000000E+01
      0.00000000E+00      0.98900000E+01     -0.70000000E+01
      0.00000000E+00      0.98900000E+01     -0.60000000E+01
      0.00000000E+00      0.98900000E+01     -0.50000000E+01
      0.00000000E+00      0.98900000E+01     -0.40000000E+01
      0.00000000E+00      0.98900000E+01     -0.30000000E+01
      0.00000000E+00      0.98900000E+01     -0.20000000E+01
      0.94700000E+01      0.27090000E+02     -0.20000000E+01
      0.94700000E+01      0.27090000E+02     -0.30000000E+01
      0.94700000E+01      0.27090000E+02     -0.40000000E+01
      0.94700000E+01      0.27090000E+02     -0.50000000E+01
      0.94700000E+01      0.27090000E+02     -0.60000000E+01
      0.94700000E+01      0.27090000E+02     -0.70000000E+01
      0.94700000E+01      0.27090000E+02     -0.80000000E+01
      0.94700000E+01      0.27090000E+02     -0.90000000E+01
      0.94700000E+01      0.27090000E+02     -0.10000000E+02
      0.94700000E+01      0.27090000E+02     -0.11000000E+02
      0.94700000E+01      0.27090000E+02     -0.12000000E+02
      0.94700000E+01      0.27090000E+02     -0.13000000E+02
      0.94700000E+01      0.27090000E+02     -0.14000000E+02
      0.94700000E+01      0.27090000E+02     -0.15000000E+02
      0.94700000E+01      0.27090000E+02     -0.16000000E+02
      0.94700000E+01      0.27090000E+02     -0.17000000E+02
      0.94700000E+01      0.27090000E+02     -0.18000000E+02
      0.94700000E+01      0.27090000E+02     -0.19000000E+02
      0.94700000E+01      0.27090000E+02     -0.20000000E+02
      0.94700000E+01      0.27090000E+02     -0.21000000E+02
      0.94700000E+01      0.27090000E+02     -0.22000000E+02
      0.94700000E+01      0.27090000E+02     -0.23000000E+02
      0.94700000E+01      0.27090000E+02     -0.24000000E+02
      0.94700000E+01      0.27090000E+02     -0.25000000E+02
      0.10980000E+02      0.14860000E+02     -0.20000000E+01
      0.10980000E+02      0.14860000E+02     -0.30000000E+01
      0.10980000E+02      0.14860000E+02     -0.40000000E+01
      0.10980000E+02      0.14860000E+02     -0.50000000E+01
      0.10980000E+02      0.14860000E+02     -0.60000000E+01
      0.10980000E+02      0.14860000E+02     -0.70000000E+01
      0.10980000E+02      0.14860000E+02     -0.80000000E+01
      0.10980000E+02      0.14860000E+02     -0.90000000E+01
      0.10980000E+02      0.14860000E+02     -0.10000000E+02
      0.10980000E+02      0.14860000E+02     -0.11000000E+02
      0.10980000E+02      0.14860000E+02     -0.12000000E+02
      0.10980000E+02      0.14860000E+02     -0.13000000E+02
      0.10980000E+02      0.14860000E+02     -0.14000000E+02
      0.10980000E+02      0.14860000E+02     -0.15000000E+02
      0.10980000E+02      0.14860000E+02     -0.16000000E+02
      0.10980000E+02      0.14860000E+02     -0.17000000E+02
      0.10980000E+02      0.14860000E+02     -0.18000000E+02
      0.10980000E+02      0.14860000E+02     -0.19000000E+02
      0.10980000E+02      0.14860000E+02     -0.20000000E+02
      0.10980000E+02      0.14860000E+02     -0.21000000E+02
      0.10980000E+02      0.14860000E+02     -0.22000000E+02
      0.10980000E+02      0.14860000E+02     -0.23000000E+02
      0.10980000E+02      0.14860000E+02     -0.24000000E+02
      0.10980000E+02      0.14860000E+02     -0.25000000E+02
      0.26850000E+02      0.17850000E+02     -0.20000000E+01
      0.26850000E+02      0.17850000E+02     -0.30000000E+01
      0.26850000E+02      0.17850000E+02     -0.40000000E+01
      0.26850000E+02      0.17850000E+02     -0.50000000E+01
      0.26850000E+02      0.17850000E+02     -0.60000000E+01
      0.26850000E+02      0.17850000E+02     -0.70000000E+01
      0.26850000E+02      0.17850000E+02     -0.80000000E+01
      0.26850000E+02      0.17850000E+02     -0.90000000E+01
      0.26850000E+02      0.17850000E+02     -0.10000000E+02
      0.26850000E+02      0.17850000E+02     -0.11000000E+02
      0.26850000E+02      0.17850000E+02     -0.12000000E+02
      0.26850000E+02      0.17850000E+02     -0.13000000E+02
      0.26850000E+02      0.17850000E+02     -0.14000000E+02
      0.26850000E+02      0.17850000E+02     -0.15000000E+02
      0.26850000E+02      0.17850000E+02     -0.16000000E+02
      0.26850000E+02      0.17850000E+02     -0.17000000E+02
      0.26850000E+02      0.17850000E+02     -0.18000000E+02
      0.26850000E+02      0.17850000E+02     -0.19000000E+02
      0.26850000E+02      0.17850000E+02     -0.20000000E+02
      0.26850000E+02      0.17850000E+02     -0.21000000E+02
      0.26850000E+02      0.17850000E+02     -0.22000000E+02
      0.26850000E+02      0.17850000E+02     -0.23000000E+02
      0.26850000E+02      0.17850000E+02     -0.24000000E+02
      0.26850000E+02      0.17850000E+02     -0.25000000E+02
      0.18640000E+02      0.00000000E+00     -0.20000000E+01
      0.18640000E+02      0.00000000E+00     -0.30000000E+01
      0.18640000E+02      0.00000000E+00     -0.40000000E+01
      0.18640000E+02      0.00000000E+00     -0.50000000E+01
      0.18640000E+02      0.00000000E+00     -0.60000000E+01
      0.18640000E+02      0.00000000E+00     -0.70000000E+01
      0.18640000E+02      0.00000000E+00     -0.80000000E+01
      0.18640000E+02      0.00000000E+00     -0.90000000E+01
      0.18640000E+02      0.00000000E+00     -0.10000000E+02
      0.18640000E+02      0.00000000E+00     -0.11000000E+02
      0.18640000E+02      0.00000000E+00     -0.12000000E+02
      0.18640000E+02      0.00000000E+00     -0.13000000E+02
      0.18640000E+02      0.00000000E+00     -0.14000000E+02
      0.18640000E+02      0.00000000E+00     -0.15000000E+02
      0.18640000E+02      0.00000000E+00     -0.16000000E+02
      0.18640000E+02      0.00000000E+00     -0.17000000E+02
      0.18640000E+02      0.00000000E+00     -0.18000000E+02
      0.18640000E+02      0.00000000E+00     -0.19000000E+02
      0.18640000E+02      0.00000000E+00     -0.20000000E+02
      0.18640000E+02      0.00000000E+00     -0.21000000E+02
      0.18640000E+02      0.00000000E+00     -0.22000000E+02
      0.18640000E+02      0.00000000E+00     -0.23000000E+02
      0.18640000E+02      0.00000000E+00     -0.24000000E+02
      0.18640000E+02      0.00000000E+00     -0.25000000E+02
     -0.51140522E+00      0.71588023E+01     -0.20000000E+01
     -0.49593660E+00      0.60927425E+01     -0.20000000E+01
      0.41797281E+00      0.66361707E+01     -0.20000000E+01
      0.43302881E+00      0.55428034E+01     -0.20000000E+01
      0.13561809E+01      0.61090631E+01     -0.20000000E+01
      0.13734931E+01      0.50157223E+01     -0.20000000E+01
      0.22946745E+01      0.55837861E+01     -0.20000000E+01
      0.23105556E+01      0.45126988E+01     -0.20000000E+01
      0.32265139E+01      0.50650006E+01     -0.20000000E+01
      0.32146856E+01      0.61321849E+01     -0.20000000E+01
      0.41392408E+01      0.56152676E+01     -0.20000000E+01
      0.41270756E+01      0.66752199E+01     -0.20000000E+01
      0.50462507E+01      0.61598431E+01     -0.20000000E+01
      0.50297219E+01      0.72122270E+01     -0.20000000E+01
      0.59521252E+01      0.67000404E+01     -0.20000000E+01
      0.59630340E+01      0.56527579E+01     -0.20000000E+01
      0.68728908E+01      0.61848904E+01     -0.20000000E+01
      0.68806275E+01      0.51415218E+01     -0.20000000E+01
      0.77829501E+01      0.56725643E+01     -0.20000000E+01
      0.77944939E+01      0.46334428E+01     -0.20000000E+01
      0.86893990E+01      0.51697938E+01     -0.20000000E+01
      0.86832209E+01      0.62039514E+01     -0.20000000E+01
      0.95803132E+01      0.57034205E+01     -0.20000000E+01
      0.96043383E+01      0.46763211E+01     -0.20000000E+01
      0.10484532E+02      0.52092251E+01     -0.20000000E+01
      0.10462370E+02      0.62354564E+01     -0.20000000E+01
      0.11361191E+02      0.57398163E+01     -0.20000000E+01
      0.11385157E+02      0.47172493E+01     -0.20000000E+01
      0.12269868E+02      0.52491723E+01     -0.20000000E+01
      0.12234766E+02      0.62715667E+01     -0.20000000E+01
      0.13145121E+02      0.57852105E+01     -0.20000000E+01
      0.13105170E+02      0.67981838E+01     -0.20000000E+01
      0.13996842E+02      0.63084968E+01     -0.20000000E+01
      0.13974063E+02      0.73252275E+01     -0.20000000E+01
      0.14866600E+02      0.68365691E+01     -0.20000000E+01
      0.14844683E+02      0.78553010E+01     -0.20000000E+01
      0.15738493E+02      0.73655798E+01     -0.20000000E+01
      0.15717492E+02      0.83861582E+01     -0.20000000E+01
      0.16611680E+02      0.78942206E+01     -0.20000000E+01
      0.16592536E+02      0.89174787E+01     -0.20000000E+01
      0.17469384E+02      0.84568878E+01     -0.20000000E+01
      0.17466436E+02      0.94547743E+01     -0.20000000E+01
[...]
POINT_DATA      6291
CELL_DATA     33106
SCALARS Resistivity(ohm.m) double 1
LOOKUP_TABLE default
           102.82605           165.92809           174.30769            55.61862           261.17947           275.41354           169.10346            11.49291            75.55079           275.42074           108.31390            65.04974             9.15977             5.78272            89.04683            54.49002            76.96674           156.23411           169.31700            44.69658           142.97754            26.55041           369.81471            87.71793           340.13200            54.81593            25.87398           196.15019            57.88091             9.07410            61.43574           124.31871            71.30428            53.99634            79.81164           196.79622            64.37612            77.36767            91.15892            22.49448           110.39423            44.06073            63.30679            87.12942            82.78860           127.61878           147.91660            21.55173            69.12145           146.12944             9.79582           160.34637           118.16597            85.08523           159.18028            22.67556           139.47096           171.18312           361.28216           590.05025           144.40114           166.17272            53.30528            64.06243             3.69089            68.03278            69.33393            94.22481            81.33110           133.44767           345.55597           138.51420            51.09278           125.03023            25.16097            45.23296           131.75881           232.00460            21.51575            23.83899            61.28674            74.83967            18.57047            44.47747           357.17518            98.92445           172.13896           100.69689           251.02999           179.40446            46.66767            65.96014           148.16093            93.40997           119.32470            78.93174           360.53264            62.70278            54.82118            69.99211            67.19260            59.11089           188.22822            48.50126            30.35273           318.15051            63.45646            72.88115           125.72595           457.63110            89.98116            73.09509            61.76713            22.08676           127.11597            64.11123            75.33999            87.70426            22.29263            73.65622            18.34740            26.14524            40.10853            85.65181            78.99950           128.60635            74.04721            52.92302            79.74185            53.62228             5.92886            81.07763            64.43533           207.98203           104.45958            74.35976           215.42878            54.54859            92.93861           141.32687            85.56428            27.30603           152.36781            73.86252           108.15623           232.80002           184.97508            67.57986            98.23879            22.01955            62.23155            80.71893            55.90967            98.63828            68.09142            57.26885            93.18106           391.94687           107.22293            21.04688           188.62145           202.83728           160.21557           271.66285           268.00215           143.77999           164.30980           130.06992           154.60106           126.10407            40.78995           132.69273           177.55307            88.83345            56.85323           238.93818            41.83431           113.50730           141.87443            88.73390            48.72818            39.10512           145.20681           161.86769           123.08706            23.45237           103.44652           156.23567            16.97328            77.90952            52.77015            57.59117           167.80232            59.65598            64.70978            48.43299           170.32509            18.38844           146.83055            45.70733           114.82429            41.45152            20.61555            21.78703           116.19793           142.18680            21.11244            73.03518            40.28905            46.71983           360.32463            62.49798           157.49243           107.77009            89.76988           252.48918           104.43565            91.75824            52.38900            67.11532           183.40209           141.25905            97.76333            56.62307           209.67590            65.48612            26.83023           195.84695            25.65029            79.48556            56.75622            57.83010           153.56143            22.68694            93.58243            99.08611            57.01582            52.74897            72.85375             9.82922            80.28345            92.56388            81.23472            36.51735            73.36849            74.08469            69.08050           185.47893            58.09855           188.31268           123.01421            20.92319           126.47878            71.72743            77.70512            67.87405           128.10247            18.77877            63.22210            71.19078            94.74182            47.13405            99.05308           101.52235            81.29319            67.75604           240.98144            88.69114           140.50833            69.64364           145.92254            64.97278            14.22822            36.99092           308.36335           156.46082            19.10556            88.22955            52.66779            54.26914           390.86350            28.59826            67.77303           222.07057           191.75224            49.39059            70.01986            88.27652           179.00430           137.01024            70.94427           263.56362           157.83140           147.60637           116.83068           115.67663            23.96495            42.90140           295.41838            14.70784            83.96615            25.32359            20.53588            65.61818           247.75418           125.34469            77.13719            54.18811            58.54970           153.10261           353.82208           117.44812            81.66206            83.43112           105.30460           334.69697          1077.56294            82.77932            58.36798           196.49017           257.48883            15.94141           183.26655           144.48991           237.28903           134.12509            48.09657           253.56534            97.73217            62.23762           118.58177          1498.29361            26.25560           137.58102           305.61432           163.82670           179.95249            60.63316            38.94957           117.06208            60.63294           101.85221            73.73001           152.01793           279.92048           107.79131            98.93548            50.96035            94.43348            41.15057            65.54143           142.26611           331.87040            33.23132            19.74914            53.79710            30.23932            23.62196           165.03257            85.64525            46.89400            47.81485            54.46082            55.45945           151.62516           320.03082            84.18698            96.16351           100.79267            60.04198            95.20052           118.94723            49.37014           154.72085            67.15122            36.90617            73.79188            69.38790            53.91435            59.86365            74.31554            43.27000            44.92165            21.06910            19.26309            56.29345            85.62776            41.45446           106.85470            70.21106            20.63744           104.85703            87.05854            24.00783           216.71467            89.42451            37.97568           133.08418            63.83147            70.22682            95.53797            71.71401            50.10292           196.85746           253.21378           144.79309            75.62016           169.98766            26.23752           285.97754            33.54222            48.86857           136.75578           148.09986           195.81645            82.62525           144.97975            38.05418            49.51297           151.31951           103.25566            29.49201            41.39366           349.33118           141.64129            77.39873           199.96714           220.49658            23.75165            91.85255           107.54290            45.93077            41.49292           200.33660            71.26439           124.35408            30.74385           199.14331           148.44093           101.53502           112.18226           126.37889            82.74661            53.96894            36.61611            97.45204            71.18313           132.39832           115.97114            70.52080             4.21181            36.80292           291.21077            95.75419            92.37286           165.92195           225.01119           108.43160            94.53707           146.88699           257.52266            21.53470           139.47414            81.99950           132.39597            80.04298            41.44698            86.00188            71.46937            65.63604           127.65940            80.78849            93.09983            63.43036           128.80647           250.78724            80.36435            60.83039            89.50584            50.59321            91.24079            65.35609            87.24341           217.15229            96.17617            95.24501           149.49238           160.14555            71.30953            81.07233            85.35229           107.82686            95.59210            34.45411           133.08556            73.38626            10.27390            19.70981           132.42531            53.01405           266.74572            73.30748            41.53722           150.95655           110.11003            69.97961            25.42186           306.78635            94.77797            27.22682            63.26638            89.75736            40.34513           104.95630            60.63281           111.27909           100.72277            17.12864            58.49457           205.02810            95.87396            60.43193            81.99130           127.76594            37.24682            52.26228            82.38828           119.41371           211.27670            68.04940            59.62134            99.83024           181.61963            96.46492            96.07186           178.49934            78.02926           115.67989            34.74447           499.95207           138.93513           173.30473            19.72921           100.62349            89.04426            88.74019           215.07056            29.20978            45.87840           247.80832           118.47020           257.18920            88.00228           230.11966           119.50563            67.00551            76.16369           115.54037            36.85883           111.38492            63.88987           330.28415            61.10811           155.51378           263.67427           111.52776            64.02491           196.93830            19.32859            38.81493            70.26260           262.18127           154.08541            51.64502           137.92428            57.45602           114.95720           154.12762           215.77982           120.19151           242.35249           273.28782           132.72839            68.47459           221.97083            61.67083           139.60287            33.63277           197.39678            92.41067            91.80614           239.03502            72.78727           183.19604           130.37440            25.99816           130.83325            51.60527            73.23175            42.31524            75.07376            47.35426           125.20589            22.11447           160.34037            79.29235            30.68707            60.19974            22.89883           172.78803            72.53044           287.73627           100.48470            86.54843           128.58284            43.22778           308.38737           153.44141           158.08797            84.65456            72.02124            52.61889            74.46248            57.48402           134.52737           161.47207           224.28425           202.96346           143.36211           107.84380            58.47145            30.27877            97.36947            70.01294           210.79584            27.80615            14.93737           106.50080            64.18023            64.05669           148.66340            68.34614            82.64185           145.45646            45.12442            95.35737            15.87268           100.63729            22.09167            30.62607           215.01839            70.00587           419.59172            79.42675           210.53074            67.11770           210.82296           110.69050           118.79143           104.08532            41.12453            83.17913           108.34649            77.89628           115.51063            26.68833            21.98427           168.40938            31.83918            60.59858            29.74503            17.34697            16.90617            59.69747           192.15174            40.06968            76.94983            17.26498            80.76362            21.21557            48.06423           143.38344           156.63512           217.17015            20.08035           113.64003            46.68553            62.15087           195.69037           127.74583           360.53823           153.51036           131.09096           142.59750            33.81951           193.82935           146.21064            42.20068           294.66172           174.38191            95.43459           305.12329           108.96924           161.57975           305.41258            38.52989            57.70265            50.43115            68.08718            36.35038            22.45675            65.07072           164.89473           143.92217           101.62474           391.00926           361.89159            65.31027           146.05825            24.42507           209.67937            62.64843           108.76046           143.78640            10.22982           108.09451            72.41516           100.79859           341.56928           118.83956            50.37555            69.45193            44.68536           220.04882             7.31727           154.07515            55.46617           115.39816            64.16674            94.90954            48.31725           184.17408            83.34774           165.25909            80.81701           126.89011           196.45075            59.01700            61.56794           104.58426            48.24258           125.36588           149.80775           212.61379           119.01595           147.07970            75.74223           100.14241            81.88691           118.22210            86.12979            26.52879            49.61320            89.12852            18.22813            72.16178          1045.24670            90.32030            66.23255           114.03883           107.07087            18.06806            62.81330            77.75198           203.87051           104.03652            48.36408           270.46788            68.69105            61.87866            30.46879           194.27425            28.79384           292.27454            70.19051            91.20831            95.51826            73.85053            69.52182           112.23377           162.92490           215.70133            32.46763            75.35735           276.79171            20.30789            47.90123           100.98360           104.49318           136.08841           127.73941            95.51040            81.44948            24.59263            65.32327           127.22791            38.46409           172.42760           140.15301           108.21605            68.08765           179.74228            53.40946            35.76721            56.81048            73.69331            98.40669           162.44238            22.29515            78.52828            97.15977           129.11438            55.74926           144.25429            69.66309           116.32773            59.78124           121.45720            80.09329           154.33257           146.82634            92.02987           125.05122            91.37177            84.41520            74.86834            54.32340            85.23658           142.66696           183.95141           145.00164            62.16764            25.75929            41.63161            15.86570            36.89475            92.35544            28.88652            93.89081           146.71466            63.58326           148.11062           136.01970           129.96784           152.23121           137.04158           113.67000            80.56065            53.83517            77.68700            28.18770            58.02755           150.06562            72.87640            64.42756            68.95976            66.84070            38.36291            61.12027           269.61482            44.26106            11.48978            65.22213            83.68373            67.26695           105.65358            67.52650           406.25955            54.30167            66.72612           102.35184            41.28813            91.99752            67.72767           675.30058            75.10386            55.32714            65.08515           319.59072           222.67981            75.81570           241.85885            26.13589           130.00869            77.99120           108.67431           129.18805            50.03839           131.75087           197.43333           194.17760            24.24877            53.85269            27.94582           163.07923            96.27622           227.39584           158.45932            24.88128            37.63391            70.33684           118.03349            84.19741            47.71491           170.45260            91.35199            24.19185           230.45276           204.00913            61.85977            54.95056            58.21087            60.13023           149.82563            24.64290           109.03370            69.90438           116.84452            88.59012            64.32371           130.92283           105.00836           148.85596            72.27430            20.82329           180.64229            49.08262           211.16764            95.10326            19.15619            44.98925            70.99988           381.45091           195.18076           238.99286            43.15688            96.41277           178.51890           243.78344           100.02039            23.06607            61.87141            23.70048           184.05830           156.68921           372.12378           209.91064           213.42857            77.43562           118.65448           165.40125            98.75130            58.52434           171.15393           185.87587            51.56385            34.23829           374.10810            50.44407            42.72723            62.57984           287.64953           204.56218            15.11858            54.24525           107.03279            50.28433            39.12720            66.93192           102.45262            17.20180            29.82644           177.48531            85.65183           114.90842            68.07025            91.96768           348.45907           120.15368            86.52742            47.09108            17.49741           163.22905            26.58445            53.50395  