# vtk DataFile Version 3.0
Output from R3t
ASCII
DATASET UNSTRUCTURED_GRID
POINTS       6984 double
      0.32220000E+02      0.32510000E+02     -0.60022762E+01
      0.32220000E+02     -0.54200000E+01     -0.62416000E+01
     -0.53700000E+01     -0.54200000E+01     -0.45992692E+01
     -0.53700000E+01      0.32510000E+02     -0.44210816E+01
      0.32220000E+02      0.32510000E+02     -0.39552276E+02
      0.32220000E+02     -0.54200000E+01     -0.39791600E+02
     -0.53700000E+01     -0.54200000E+01     -0.38149269E+02
     -0.53700000E+01      0.32510000E+02     -0.37971082E+02
      0.21571000E+03      0.21600000E+03     -0.60852000E+01
      0.21571000E+03     -0.18891000E+03     -0.62416000E+01
     -0.18886000E+03     -0.18891000E+03     -0.45045000E+01
     -0.18886000E+03      0.21600000E+03     -0.44240000E+01
      0.00000000E+00      0.98900000E+01     -0.27504500E+02
      0.00000000E+00      0.98900000E+01     -0.26504500E+02
      0.00000000E+00      0.98900000E+01     -0.25504500E+02
      0.00000000E+00      0.98900000E+01     -0.24504500E+02
      0.00000000E+00      0.98900000E+01     -0.23504500E+02
      0.00000000E+00      0.98900000E+01     -0.22504500E+02
      0.00000000E+00      0.98900000E+01     -0.21504500E+02
      0.00000000E+00      0.98900000E+01     -0.20504500E+02
      0.00000000E+00      0.98900000E+01     -0.19504500E+02
      0.00000000E+00      0.98900000E+01     -0.18504500E+02
      0.00000000E+00      0.98900000E+01     -0.17504500E+02
      0.00000000E+00      0.98900000E+01     -0.16504500E+02
      0.00000000E+00      0.98900000E+01     -0.15504500E+02
      0.00000000E+00      0.98900000E+01     -0.14504500E+02
      0.00000000E+00      0.98900000E+01     -0.13504500E+02
      0.00000000E+00      0.98900000E+01     -0.12504500E+02
      0.00000000E+00      0.98900000E+01     -0.11504500E+02
      0.00000000E+00      0.98900000E+01     -0.10504500E+02
      0.00000000E+00      0.98900000E+01     -0.95045000E+01
      0.00000000E+00      0.98900000E+01     -0.85045000E+01
      0.00000000E+00      0.98900000E+01     -0.75045000E+01
      0.00000000E+00      0.98900000E+01     -0.65045000E+01
      0.00000000E+00      0.98900000E+01     -0.55045000E+01
      0.00000000E+00      0.98900000E+01     -0.45045000E+01
      0.94700000E+01      0.27090000E+02     -0.44240000E+01
      0.94700000E+01      0.27090000E+02     -0.54240000E+01
      0.94700000E+01      0.27090000E+02     -0.64240000E+01
      0.94700000E+01      0.27090000E+02     -0.74240000E+01
      0.94700000E+01      0.27090000E+02     -0.84240000E+01
      0.94700000E+01      0.27090000E+02     -0.94240000E+01
      0.94700000E+01      0.27090000E+02     -0.10424000E+02
      0.94700000E+01      0.27090000E+02     -0.11424000E+02
      0.94700000E+01      0.27090000E+02     -0.12424000E+02
      0.94700000E+01      0.27090000E+02     -0.13424000E+02
      0.94700000E+01      0.27090000E+02     -0.14424000E+02
      0.94700000E+01      0.27090000E+02     -0.15424000E+02
      0.94700000E+01      0.27090000E+02     -0.16424000E+02
      0.94700000E+01      0.27090000E+02     -0.17424000E+02
      0.94700000E+01      0.27090000E+02     -0.18424000E+02
      0.94700000E+01      0.27090000E+02     -0.19424000E+02
      0.94700000E+01      0.27090000E+02     -0.20424000E+02
      0.94700000E+01      0.27090000E+02     -0.21424000E+02
      0.94700000E+01      0.27090000E+02     -0.22424000E+02
      0.94700000E+01      0.27090000E+02     -0.23424000E+02
      0.94700000E+01      0.27090000E+02     -0.24424000E+02
      0.94700000E+01      0.27090000E+02     -0.25424000E+02
      0.94700000E+01      0.27090000E+02     -0.26424000E+02
      0.94700000E+01      0.27090000E+02     -0.27424000E+02
      0.10980000E+02      0.14860000E+02     -0.20009430E+01
      0.10980000E+02      0.14860000E+02     -0.30009430E+01
      0.10980000E+02      0.14860000E+02     -0.40009430E+01
      0.10980000E+02      0.14860000E+02     -0.50009430E+01
      0.10980000E+02      0.14860000E+02     -0.60009430E+01
      0.10980000E+02      0.14860000E+02     -0.70009430E+01
      0.10980000E+02      0.14860000E+02     -0.80009430E+01
      0.10980000E+02      0.14860000E+02     -0.90009430E+01
      0.10980000E+02      0.14860000E+02     -0.10000943E+02
      0.10980000E+02      0.14860000E+02     -0.11000943E+02
      0.10980000E+02      0.14860000E+02     -0.12000943E+02
      0.10980000E+02      0.14860000E+02     -0.13000943E+02
      0.10980000E+02      0.14860000E+02     -0.14000943E+02
      0.10980000E+02      0.14860000E+02     -0.15000943E+02
      0.10980000E+02      0.14860000E+02     -0.16000943E+02
      0.10980000E+02      0.14860000E+02     -0.17000943E+02
      0.10980000E+02      0.14860000E+02     -0.18000943E+02
      0.10980000E+02      0.14860000E+02     -0.19000943E+02
      0.10980000E+02      0.14860000E+02     -0.20000943E+02
      0.10980000E+02      0.14860000E+02     -0.21000943E+02
      0.10980000E+02      0.14860000E+02     -0.22000943E+02
      0.10980000E+02      0.14860000E+02     -0.23000943E+02
      0.10980000E+02      0.14860000E+02     -0.24000943E+02
      0.10980000E+02      0.14860000E+02     -0.25000943E+02
      0.26850000E+02      0.17850000E+02     -0.60849799E+01
      0.26850000E+02      0.17850000E+02     -0.70849799E+01
      0.26850000E+02      0.17850000E+02     -0.80849799E+01
      0.26850000E+02      0.17850000E+02     -0.90849799E+01
      0.26850000E+02      0.17850000E+02     -0.10084980E+02
      0.26850000E+02      0.17850000E+02     -0.11084980E+02
      0.26850000E+02      0.17850000E+02     -0.12084980E+02
      0.26850000E+02      0.17850000E+02     -0.13084980E+02
      0.26850000E+02      0.17850000E+02     -0.14084980E+02
      0.26850000E+02      0.17850000E+02     -0.15084980E+02
      0.26850000E+02      0.17850000E+02     -0.16084980E+02
      0.26850000E+02      0.17850000E+02     -0.17084980E+02
      0.26850000E+02      0.17850000E+02     -0.18084980E+02
      0.26850000E+02      0.17850000E+02     -0.19084980E+02
      0.26850000E+02      0.17850000E+02     -0.20084980E+02
      0.26850000E+02      0.17850000E+02     -0.21084980E+02
      0.26850000E+02      0.17850000E+02     -0.22084980E+02
      0.26850000E+02      0.17850000E+02     -0.23084980E+02
      0.26850000E+02      0.17850000E+02     -0.24084980E+02
      0.26850000E+02      0.17850000E+02     -0.25084980E+02
      0.26850000E+02      0.17850000E+02     -0.26084980E+02
      0.26850000E+02      0.17850000E+02     -0.27084980E+02
      0.26850000E+02      0.17850000E+02     -0.28084980E+02
      0.26850000E+02      0.17850000E+02     -0.29084980E+02
      0.18640000E+02      0.00000000E+00     -0.62416000E+01
      0.18640000E+02      0.00000000E+00     -0.72416000E+01
      0.18640000E+02      0.00000000E+00     -0.82416000E+01
      0.18640000E+02      0.00000000E+00     -0.92416000E+01
      0.18640000E+02      0.00000000E+00     -0.10241600E+02
      0.18640000E+02      0.00000000E+00     -0.11241600E+02
      0.18640000E+02      0.00000000E+00     -0.12241600E+02
      0.18640000E+02      0.00000000E+00     -0.13241600E+02
      0.18640000E+02      0.00000000E+00     -0.14241600E+02
      0.18640000E+02      0.00000000E+00     -0.15241600E+02
      0.18640000E+02      0.00000000E+00     -0.16241600E+02
      0.18640000E+02      0.00000000E+00     -0.17241600E+02
      0.18640000E+02      0.00000000E+00     -0.18241600E+02
      0.18640000E+02      0.00000000E+00     -0.19241600E+02
      0.18640000E+02      0.00000000E+00     -0.20241600E+02
      0.18640000E+02      0.00000000E+00     -0.21241600E+02
      0.18640000E+02      0.00000000E+00     -0.22241600E+02
      0.18640000E+02      0.00000000E+00     -0.23241600E+02
      0.18640000E+02      0.00000000E+00     -0.24241600E+02
      0.18640000E+02      0.00000000E+00     -0.25241600E+02
      0.18640000E+02      0.00000000E+00     -0.26241600E+02
      0.18640000E+02      0.00000000E+00     -0.27241600E+02
      0.18640000E+02      0.00000000E+00     -0.28241600E+02
      0.18640000E+02      0.00000000E+00     -0.29241600E+02
      0.32220000E+02      0.31324687E+02     -0.60022762E+01
      0.32220000E+02      0.30139375E+02     -0.60022762E+01
      0.32220000E+02      0.28954062E+02     -0.60852000E+01
      0.32220000E+02      0.27768750E+02     -0.60852000E+01
      0.32220000E+02      0.26583437E+02     -0.60852000E+01
      0.32220000E+02      0.25398125E+02     -0.60852000E+01
      0.32220000E+02      0.24212812E+02     -0.60852000E+01
      0.32220000E+02      0.23027500E+02     -0.60852000E+01
      0.32220000E+02      0.21842188E+02     -0.60852000E+01
      0.32220000E+02      0.20656875E+02     -0.60852000E+01
      0.32220000E+02      0.19471563E+02     -0.60852000E+01
      0.32220000E+02      0.18286250E+02     -0.60852000E+01
      0.32220000E+02      0.17100938E+02     -0.60852000E+01
      0.32220000E+02      0.15915625E+02     -0.60852000E+01
      0.32220000E+02      0.14730313E+02     -0.60852000E+01
      0.32220000E+02      0.13545000E+02     -0.60849799E+01
      0.32220000E+02      0.12359687E+02     -0.60791901E+01
      0.32220000E+02      0.11174375E+02     -0.60791901E+01
      0.32220000E+02      0.99890625E+01     -0.60537047E+01
      0.32220000E+02      0.88037500E+01     -0.60698482E+01
      0.32220000E+02      0.76184375E+01     -0.61265914E+01
      0.32220000E+02      0.64331250E+01     -0.61265914E+01
      0.32220000E+02      0.52478125E+01     -0.61265914E+01
      0.32220000E+02      0.40625000E+01     -0.61726076E+01
      0.32220000E+02      0.28771875E+01     -0.61726076E+01
      0.32220000E+02      0.16918750E+01     -0.61726076E+01
      0.32220000E+02      0.50656250E+00     -0.61712132E+01
      0.32220000E+02     -0.67875000E+00     -0.61712132E+01
      0.32220000E+02     -0.18640625E+01     -0.61750523E+01
      0.32220000E+02     -0.30493750E+01     -0.62270641E+01
[...]
POINT_DATA      6984
CELL_DATA     36929
SCALARS Resistivity(ohm.m) double 1
LOOKUP_TABLE default
           140.24247           144.41978           149.32610           144.24263           125.65408           130.11933           119.98898           104.85113           139.85118           125.89807           143.82347           121.98326           139.79916           125.87111            97.09216           142.28892           137.44202           126.13558           155.42747           168.28247           147.45427           153.59475           119.30975           121.21472           132.73488            96.39338           123.37922           127.18775            90.50484           155.34046           135.11244           118.34973           123.21388           106.23523           106.73208           154.76271           112.08107           122.68634           115.08632           120.09527           132.63566           154.68290           119.91139           118.69707           139.76626           119.05985           146.55150           100.66824           151.93361           113.38173           129.75462           123.33856           144.65084           108.92944           106.30723            95.27461           131.48407           108.90008           134.31846           141.46587           122.70344           131.26337           151.70466           148.85048           129.76541           118.27376           130.64113           124.70165           110.31803           144.58894           132.26643           169.43019           118.94581           136.71192           130.92026           131.32018           215.53644           130.02382           119.98956           142.01463           133.71257           156.73141           135.34997           143.33244           159.04433           114.06081           114.66345           142.82896           104.01926           132.85292           100.55741           133.61404           117.17203           134.70999           139.71882           135.94138           127.57952           154.29684           110.38868           120.38063           115.35995           120.32932           130.17211           124.50335           126.47246           148.76791           138.31722           153.47688           133.36572           132.83967           102.99209           115.69725           154.89623            94.56795            93.09008            99.25637            95.69162           108.27290           141.57526           117.52976           126.14218           135.56335           117.38734           111.90386           122.48039           128.03001           121.08740           151.28440           142.15309           135.67485           124.37817           107.28003           143.88836           120.01498           137.87489           178.34595           117.48028           112.44025           153.54149           119.49685           113.31173           129.13353           146.68766           128.56283           117.40626           126.14309           129.82437           117.54426           122.20858            95.59847           123.03118           139.38091           148.32671           121.84853           143.37046           108.37983           148.17867           105.84696           128.40393           114.56069           118.82024           129.91676            97.31898           137.44525           111.67169           127.15603           121.23628           114.19976           143.49259           115.11401           135.76090           126.28137           151.32297           153.61797           150.91063           111.08516           108.23172           142.63433           120.65828           126.52394           122.85951           151.29370            88.40801           112.27187           171.77444           155.43461           146.06676           145.75352           155.21754           111.67285           124.40969           108.22010           144.22074           123.92090           145.21912           144.01767           133.56613            97.88676           120.58916           121.15887           107.22888           142.29596           172.51772           141.40805           124.26715            96.60974            94.68945           105.55532            92.44105           132.52417           116.28613           123.79096           119.67397           115.68704           149.26120           126.58209            98.61438           118.92868           137.00061           118.68358           154.91553           122.88800           135.79402           140.70466           110.64559           153.25175           116.28312           115.67135           140.76804           132.24170           125.73564           131.33650           155.67098           135.47944           127.38805           156.18556           129.08172           146.75926           142.56025           111.21245           141.29151           117.72750           146.17326           106.80046           111.81895           166.49503           159.71797           132.82821           142.58848           125.89987           142.89377           152.21931           128.71063           134.05648           123.07528           121.05552           167.04065            97.09436           128.98519           120.61472           122.19184           105.92723            87.94129           105.02901           128.15351           128.42792           164.59438           114.38178           153.31420           154.61624           138.65715           122.07284           157.87636           129.78379           142.57408           104.98764           126.69927           113.43056           118.39277           112.73911           155.20112           128.16597           118.61926           121.26859           154.74016           107.12837           122.65655           112.25563            82.95025           138.04228           119.36552           150.91157           139.36735           144.06973           147.19821           140.21996           154.86239           131.43117           134.34753           174.41752           116.91591           110.75261           156.14321           131.82455           119.08364           135.91705           154.78963           130.38237           113.13663           149.97984           131.92594           110.24918           151.91356           102.49162           130.94310           178.19113            90.62074           161.93447           125.29218           143.04891           127.20314           102.57271           116.93997           139.80756           140.91883           132.04853           127.11946           155.00014           128.24952           133.58451           142.53546           123.29880           111.27478           151.55757            97.36519           113.12969           155.05965           115.92034           142.33364           100.11281           110.31910            91.91175           139.57839           121.35718           137.41774           130.60335           117.12817           124.39292           145.39979           109.01224            75.53023           133.19745           111.63688           126.12725           119.76007           118.84797           129.80994           161.80350           104.82372           141.58310           114.17010           148.14418           120.34427           156.47364           106.55862           130.54554           144.02976           120.71435           113.78759           143.28458           120.18321           130.17508           124.04402           134.79050           127.98301           143.84925           164.32786           139.99096           152.77290           125.97013           132.53696           123.44251           129.17522           116.95941           111.36546           133.87517           127.49362           131.66273           114.87289           106.42510           111.94391           117.21894            96.63857           106.61296           118.76937           114.17855           125.26540           131.35390           109.30805           149.04641           134.96353           125.34369           118.70465           175.35694           140.67094           134.44596           117.56381           104.25125           109.09706           153.12228           144.04453           118.03296           126.55519           172.59789           118.60358           136.87951           115.49179           113.06744           150.46477           126.99231           149.91283           174.71534           114.00308           130.01481           142.50711           114.38175           133.10221           124.05293            84.40949           118.74377           125.52770           112.87553           131.41261           145.47843           123.07134           117.83699           101.49247           162.50985           145.22391           142.83283           116.09242           131.84317           100.91642           126.73434           148.89026           163.23866           139.41181           120.42201           131.35311           152.35586           131.13355           127.08330            78.11947           113.65973           130.48328           109.22608           121.82763           103.77885           122.82449           134.62478           127.26693           133.72665           110.79162            98.97664           144.40162           154.07933           121.66356           130.62027           111.90872           133.28205           217.22091           130.97651           149.60060            96.04513           120.33550           116.96860           143.31778           128.21641           109.74441           152.54409           161.02057           138.24116           119.09094           121.53122           135.10945           146.22143           143.87336           122.67620           123.62979           133.69559           128.05693           154.56256           132.31642           138.63867           152.82192           107.85810           128.93795           142.07026           121.39010           135.21444           116.91951           147.84377           132.35113           134.62763           120.94955           103.97461           102.85892            86.55692           125.18637           131.89375           119.51161           118.05988           153.49029           157.44542           155.47543           127.93672           100.50247            92.60787           126.12666           121.47019           150.34866            85.29581           130.07432           110.57245           109.80489           117.36254           131.86597           129.22416           111.48845            91.42053           120.40308           130.39752           119.36063           131.64131           136.05164           127.63694           101.88479           149.96787           112.44502           114.12346           109.33320           120.76909           130.48994            85.32770           158.00299           106.65041           111.42641           140.93898           118.21603           127.79876           128.63966           116.39753           120.26040           149.95463           138.01870            95.19495           140.45558           117.30293           119.95574           143.26742           123.59666           175.87252           112.02789           131.40089           133.86668           112.31722           110.45036           113.47121           101.13487           149.48017           124.05976           121.52749           187.96011           105.55654           120.66463           117.84111           118.08343           137.00060           201.74178           130.52332           106.20696           105.83689           139.00173           162.85269           140.98173           148.02475           116.31454           163.02385           155.07782           117.56401           127.20051           122.01312            96.85159           137.97745           124.21739           121.10874            89.67068           166.22035           131.16997           108.09425           137.90801           123.30222           142.83645           127.46213           152.35471           141.90915            83.24269           124.15493           111.73600           112.54283           135.60747           136.88017           122.62241           144.74506           150.43617           126.26932           131.39981            91.95081           114.66092           112.71236           115.03660           157.65975           154.79488           120.99874           133.45346           107.71965           132.75912           111.89278           158.07492           135.85745           155.07207           115.27403           102.95507           120.19458           143.38942           126.34971           128.70219           126.37294           122.24837           134.63139           124.63979           125.01966           143.88149           115.07727           143.47402           163.95544           135.77426           158.56098           117.61673            95.13329           117.58948           128.94319           127.47348           120.50508           150.71571           131.61563           127.86363           100.03122           118.91868           146.71201           132.58564           144.28669            64.87644           139.86893            93.45113           127.03994            88.81154           137.19855           145.09170           141.58828           137.13437           122.95480           103.03070           105.58698           103.45111           136.02759           141.35004           119.30279           133.07416           108.80914           135.83139           143.11476           107.53641            86.18354           131.76134           110.70355            92.03929           133.67546            79.65029            97.12147           110.39190           130.13880            92.98344           148.08646           140.22128           123.88871           180.22588           122.45565            94.85333           139.02616           130.61624           133.25410            87.86222           142.95362           158.59116           100.39654           114.42797           195.60858           134.74741           125.22491           146.12588           131.31129           148.96071           132.50534           164.70748           146.77415           141.26005           141.94029           109.61259           137.91793           121.10494           106.83195           136.36433           133.31656           134.00542           132.03023           136.39312            95.07594           117.40880           149.37606           140.06146           123.64941           137.77400           124.08806           109.01774           114.36830           123.68686           133.99719           129.91128           143.90750           103.14537            89.75171           113.68362           111.46345           107.95892           100.23181           131.46060           155.15379           128.49085           152.40836           108.62343           143.83939           132.29430           101.77773           121.23545           180.66261           166.01909           123.20934           127.16834           145.05187           121.90983           124.74888           121.45457           136.28257           117.24251           142.30943           136.57230           143.10295           129.75532           117.22817           139.44992           133.56792           123.43064           131.02814           148.07238           127.37524           132.73356           121.83846           141.34576           108.38566           106.85056           117.10327           156.48360           111.55429           141.96612           112.24054           138.65158           127.56351           105.41677           144.09242           212.92815           134.61291           135.81987           123.43695           128.70296           123.88872           110.83614           125.75049           123.22180           123.76386            82.88239           126.26805           144.60657           151.34701           159.87104           118.47569           130.52675           144.37405           108.37954           102.39508           122.19537           124.23508           109.60802           131.12842           123.35183           140.69551            85.90447           117.24249           117.47651           148.14100           135.33380            92.65919           138.97856           123.00052           119.44900           126.28261           136.66098           127.92673           101.43556           126.11958           119.09476           139.15414           139.36494           123.93275           119.86975           123.16499           127.77323           143.68827           124.33763           104.90936           100.64063           134.06244           120.98077           123.47788           141.21889           128.27780           116.26017           115.27436           138.68049           126.94608           112.11807           106.31316            84.17641           124.62767           127.70733           134.38731           138.32447            98.54072           124.55834            93.32214           143.72334           120.02490           138.23767           112.29084           108.98483           130.03390           114.58546           120.22473           133.38871           110.27280            94.08630           127.35668           135.63438           100.28973           107.22402           124.84191           105.21549           132.99107           138.63823            74.08188           128.80180           112.35781            93.32431           105.67857           156.90308           155.47459           156.87836           116.85086           140.86136            93.19060           120.80693           129.54049           120.04276           131.53709           112.95844            94.84100           117.30163           118.46419           112.64910           126.93405           111.09054            86.76031           121.30140           146.29441           173.14739           102.13408           128.84893           132.32425            93.62350           123.84493           115.56946           117.91438           111.78046           118.48633           149.30298           123.78945           119.05042           142.90749           151.83538           151.43968           114.91259           132.57372           144.23146           132.57007           138.15885           124.02654           146.15656           104.64314            94.76686           137.86063           111.79446           104.15438           148.30162           177.55470           128.28422           121.19279           135.76487           109.58658           166.62338           124.22679           145.65779           144.09977           145.33085           116.78585           131.72897           120.53902           123.73954           138.10666           172.69079           137.72244           117.74160           132.81395           142.10596            83.66205           142.21257           139.83693           131.26397           110.83074           180.35251           112.69623           138.49599           125.40870           134.86617           149.25499            98.04845           133.46704           114.69011           120.56775           130.20078            77.70904           149.89070           132.35266           131.92014           115.81055           125.48295           158.39330           143.25193           125.95952           120.12755           124.48888           120.08285           169.65679           136.42144           143.34784           111.24741           128.63703           129.62621           123.29216            74.80046           127.28637           161.26760           117.68911           135.92797           147.79964           143.15304  