# vtk DataFile Version 3.0
Output from R3t
ASCII
DATASET UNSTRUCTURED_GRID
POINTS       6984 double
      0.32220000E+02      0.32510000E+02     -0.60022762E+01
      0.32220000E+02     -0.54200000E+01     -0.62416000E+01
     -0.53700000E+01     -0.54200000E+01     -0.45992692E+01
     -0.53700000E+01      0.32510000E+02     -0.44210816E+01
      0.32220000E+02      0.32510000E+02     -0.39552276E+02
      0.32220000E+02     -0.54200000E+01     -0.39791600E+02
     -0.53700000E+01     -0.54200000E+01     -0.38149269E+02
     -0.53700000E+01      0.32510000E+02     -0.37971082E+02
      0.21571000E+03      0.21600000E+03     -0.60852000E+01
      0.21571000E+03     -0.18891000E+03     -0.62416000E+01
     -0.18886000E+03     -0.18891000E+03     -0.45045000E+01
     -0.18886000E+03      0.21600000E+03     -0.44240000E+01
      0.00000000E+00      0.98900000E+01     -0.27504500E+02
      0.00000000E+00      0.98900000E+01     -0.26504500E+02
      0.00000000E+00      0.98900000E+01     -0.25504500E+02
      0.00000000E+00      0.98900000E+01     -0.24504500E+02
      0.00000000E+00      0.98900000E+01     -0.23504500E+02
      0.00000000E+00      0.98900000E+01     -0.22504500E+02
      0.00000000E+00      0.98900000E+01     -0.21504500E+02
      0.00000000E+00      0.98900000E+01     -0.20504500E+02
      0.00000000E+00      0.98900000E+01     -0.19504500E+02
      0.00000000E+00      0.98900000E+01     -0.18504500E+02
      0.00000000E+00      0.98900000E+01     -0.17504500E+02
      0.00000000E+00      0.98900000E+01     -0.16504500E+02
      0.00000000E+00      0.98900000E+01     -0.15504500E+02
      0.00000000E+00      0.98900000E+01     -0.14504500E+02
      0.00000000E+00      0.98900000E+01     -0.13504500E+02
      0.00000000E+00      0.98900000E+01     -0.12504500E+02
      0.00000000E+00      0.98900000E+01     -0.11504500E+02
      0.00000000E+00      0.98900000E+01     -0.10504500E+02
      0.00000000E+00      0.98900000E+01     -0.95045000E+01
      0.00000000E+00      0.98900000E+01     -0.85045000E+01
      0.00000000E+00      0.98900000E+01     -0.75045000E+01
      0.00000000E+00      0.98900000E+01     -0.65045000E+01
      0.00000000E+00      0.98900000E+01     -0.55045000E+01
      0.00000000E+00      0.98900000E+01     -0.45045000E+01
      0.94700000E+01      0.27090000E+02     -0.44240000E+01
      0.94700000E+01      0.27090000E+02     -0.54240000E+01
      0.94700000E+01      0.27090000E+02     -0.64240000E+01
      0.94700000E+01      0.27090000E+02     -0.74240000E+01
      0.94700000E+01      0.27090000E+02     -0.84240000E+01
      0.94700000E+01      0.27090000E+02     -0.94240000E+01
      0.94700000E+01      0.27090000E+02     -0.10424000E+02
      0.94700000E+01      0.27090000E+02     -0.11424000E+02
      0.94700000E+01      0.27090000E+02     -0.12424000E+02
      0.94700000E+01      0.27090000E+02     -0.13424000E+02
      0.94700000E+01      0.27090000E+02     -0.14424000E+02
      0.94700000E+01      0.27090000E+02     -0.15424000E+02
      0.94700000E+01      0.27090000E+02     -0.16424000E+02
      0.94700000E+01      0.27090000E+02     -0.17424000E+02
      0.94700000E+01      0.27090000E+02     -0.18424000E+02
      0.94700000E+01      0.27090000E+02     -0.19424000E+02
      0.94700000E+01      0.27090000E+02     -0.20424000E+02
      0.94700000E+01      0.27090000E+02     -0.21424000E+02
      0.94700000E+01      0.27090000E+02     -0.22424000E+02
      0.94700000E+01      0.27090000E+02     -0.23424000E+02
      0.94700000E+01      0.27090000E+02     -0.24424000E+02
      0.94700000E+01      0.27090000E+02     -0.25424000E+02
      0.94700000E+01      0.27090000E+02     -0.26424000E+02
      0.94700000E+01      0.27090000E+02     -0.27424000E+02
      0.10980000E+02      0.14860000E+02     -0.20009430E+01
      0.10980000E+02      0.14860000E+02     -0.30009430E+01
      0.10980000E+02      0.14860000E+02     -0.40009430E+01
      0.10980000E+02      0.14860000E+02     -0.50009430E+01
      0.10980000E+02      0.14860000E+02     -0.60009430E+01
      0.10980000E+02      0.14860000E+02     -0.70009430E+01
      0.10980000E+02      0.14860000E+02     -0.80009430E+01
      0.10980000E+02      0.14860000E+02     -0.90009430E+01
      0.10980000E+02      0.14860000E+02     -0.10000943E+02
      0.10980000E+02      0.14860000E+02     -0.11000943E+02
      0.10980000E+02      0.14860000E+02     -0.12000943E+02
      0.10980000E+02      0.14860000E+02     -0.13000943E+02
      0.10980000E+02      0.14860000E+02     -0.14000943E+02
      0.10980000E+02      0.14860000E+02     -0.15000943E+02
      0.10980000E+02      0.14860000E+02     -0.16000943E+02
      0.10980000E+02      0.14860000E+02     -0.17000943E+02
      0.10980000E+02      0.14860000E+02     -0.18000943E+02
      0.10980000E+02      0.14860000E+02     -0.19000943E+02
      0.10980000E+02      0.14860000E+02     -0.20000943E+02
      0.10980000E+02      0.14860000E+02     -0.21000943E+02
      0.10980000E+02      0.14860000E+02     -0.22000943E+02
      0.10980000E+02      0.14860000E+02     -0.23000943E+02
      0.10980000E+02      0.14860000E+02     -0.24000943E+02
      0.10980000E+02      0.14860000E+02     -0.25000943E+02
      0.26850000E+02      0.17850000E+02     -0.60849799E+01
      0.26850000E+02      0.17850000E+02     -0.70849799E+01
      0.26850000E+02      0.17850000E+02     -0.80849799E+01
      0.26850000E+02      0.17850000E+02     -0.90849799E+01
      0.26850000E+02      0.17850000E+02     -0.10084980E+02
      0.26850000E+02      0.17850000E+02     -0.11084980E+02
      0.26850000E+02      0.17850000E+02     -0.12084980E+02
      0.26850000E+02      0.17850000E+02     -0.13084980E+02
      0.26850000E+02      0.17850000E+02     -0.14084980E+02
      0.26850000E+02      0.17850000E+02     -0.15084980E+02
      0.26850000E+02      0.17850000E+02     -0.16084980E+02
      0.26850000E+02      0.17850000E+02     -0.17084980E+02
      0.26850000E+02      0.17850000E+02     -0.18084980E+02
      0.26850000E+02      0.17850000E+02     -0.19084980E+02
      0.26850000E+02      0.17850000E+02     -0.20084980E+02
      0.26850000E+02      0.17850000E+02     -0.21084980E+02
      0.26850000E+02      0.17850000E+02     -0.22084980E+02
      0.26850000E+02      0.17850000E+02     -0.23084980E+02
      0.26850000E+02      0.17850000E+02     -0.24084980E+02
      0.26850000E+02      0.17850000E+02     -0.25084980E+02
      0.26850000E+02      0.17850000E+02     -0.26084980E+02
      0.26850000E+02      0.17850000E+02     -0.27084980E+02
      0.26850000E+02      0.17850000E+02     -0.28084980E+02
      0.26850000E+02      0.17850000E+02     -0.29084980E+02
      0.18640000E+02      0.00000000E+00     -0.62416000E+01
      0.18640000E+02      0.00000000E+00     -0.72416000E+01
      0.18640000E+02      0.00000000E+00     -0.82416000E+01
      0.18640000E+02      0.00000000E+00     -0.92416000E+01
      0.18640000E+02      0.00000000E+00     -0.10241600E+02
      0.18640000E+02      0.00000000E+00     -0.11241600E+02
      0.18640000E+02      0.00000000E+00     -0.12241600E+02
      0.18640000E+02      0.00000000E+00     -0.13241600E+02
      0.18640000E+02      0.00000000E+00     -0.14241600E+02
      0.18640000E+02      0.00000000E+00     -0.15241600E+02
      0.18640000E+02      0.00000000E+00     -0.16241600E+02
      0.18640000E+02      0.00000000E+00     -0.17241600E+02
      0.18640000E+02      0.00000000E+00     -0.18241600E+02
      0.18640000E+02      0.00000000E+00     -0.19241600E+02
      0.18640000E+02      0.00000000E+00     -0.20241600E+02
      0.18640000E+02      0.00000000E+00     -0.21241600E+02
      0.18640000E+02      0.00000000E+00     -0.22241600E+02
      0.18640000E+02      0.00000000E+00     -0.23241600E+02
      0.18640000E+02      0.00000000E+00     -0.24241600E+02
      0.18640000E+02      0.00000000E+00     -0.25241600E+02
      0.18640000E+02      0.00000000E+00     -0.26241600E+02
      0.18640000E+02      0.00000000E+00     -0.27241600E+02
      0.18640000E+02      0.00000000E+00     -0.28241600E+02
      0.18640000E+02      0.00000000E+00     -0.29241600E+02
      0.32220000E+02      0.31324687E+02     -0.60022762E+01
      0.32220000E+02      0.30139375E+02     -0.60022762E+01
      0.32220000E+02      0.28954062E+02     -0.60852000E+01
      0.32220000E+02      0.27768750E+02     -0.60852000E+01
      0.32220000E+02      0.26583437E+02     -0.60852000E+01
      0.32220000E+02      0.25398125E+02     -0.60852000E+01
      0.32220000E+02      0.24212812E+02     -0.60852000E+01
      0.32220000E+02      0.23027500E+02     -0.60852000E+01
      0.32220000E+02      0.21842188E+02     -0.60852000E+01
      0.32220000E+02      0.20656875E+02     -0.60852000E+01
      0.32220000E+02      0.19471563E+02     -0.60852000E+01
      0.32220000E+02      0.18286250E+02     -0.60852000E+01
      0.32220000E+02      0.17100938E+02     -0.60852000E+01
      0.32220000E+02      0.15915625E+02     -0.60852000E+01
      0.32220000E+02      0.14730313E+02     -0.60852000E+01
      0.32220000E+02      0.13545000E+02     -0.60849799E+01
      0.32220000E+02      0.12359687E+02     -0.60791901E+01
      0.32220000E+02      0.11174375E+02     -0.60791901E+01
      0.32220000E+02      0.99890625E+01     -0.60537047E+01
      0.32220000E+02      0.88037500E+01     -0.60698482E+01
      0.32220000E+02      0.76184375E+01     -0.61265914E+01
      0.32220000E+02      0.64331250E+01     -0.61265914E+01
      0.32220000E+02      0.52478125E+01     -0.61265914E+01
      0.32220000E+02      0.40625000E+01     -0.61726076E+01
      0.32220000E+02      0.28771875E+01     -0.61726076E+01
      0.32220000E+02      0.16918750E+01     -0.61726076E+01
      0.32220000E+02      0.50656250E+00     -0.61712132E+01
      0.32220000E+02     -0.67875000E+00     -0.61712132E+01
      0.32220000E+02     -0.18640625E+01     -0.61750523E+01
      0.32220000E+02     -0.30493750E+01     -0.62270641E+01
[...]
POINT_DATA      6984
CELL_DATA     36929
SCALARS Resistivity(ohm.m) double 1
LOOKUP_TABLE default
           124.68372           132.96344           134.84585           126.99277           118.53889           119.04724           110.44595            97.52602           123.31366           120.29111           127.92358           120.03596           101.25366           120.14274            92.75854           130.03349           117.70481           114.92293           143.72505           130.03665           122.20329           136.65027           109.57559           112.81551           110.99633            89.75201           111.97580           114.32990            88.67034           143.56282           122.70622           108.04996           111.82935           100.99940            99.08009           142.02250           101.14722           114.69340           103.92600           111.98397           122.06612           135.97388           118.41609           111.87164           130.43177           108.47462           130.35484            94.90843           135.68638           101.24730           109.84329           116.24819           133.16907           103.71782            96.32638           101.44106           122.60660           107.07445           121.71457           133.69316           111.19388           119.96264           126.93289           132.11323           119.82424           108.59166           119.25061           118.97276           107.52777           122.80283           121.94129           140.78589           106.56447           119.91001           120.06200           121.68754           178.86999           119.18418           108.53989           130.02215           121.00420           134.51656           122.32098           121.65263           150.66492            95.73793            96.63061           121.54504            98.73849           127.08303            94.61456           122.63427           111.18499           128.00721           124.25712           122.84782           117.96978           136.47277            99.25240           112.58801           105.26737           113.07548           121.10091           113.74426           119.48745           125.37468           128.07100           131.75631           121.12207           122.41991            97.23634           103.37876           142.32986            76.81973            87.73189            94.09951            78.45866            98.46685           125.08046           111.67189           120.39251           122.77986           110.73986            93.07167           113.40278           119.98350           112.53186           126.80855           125.78661           122.40212           113.87522           105.75405           136.32704           110.53478           127.78358           160.76746           101.04315           103.34561           132.73373           112.39516           105.63783           118.46132           128.89604           118.76566           107.22012           115.18580           120.45775           111.00246           112.87033            88.72328           116.21208           127.39225           128.09606           116.11995           131.45804           101.39204           124.38520            90.79386           115.68404           107.99860           113.55701           123.93652            78.84101           125.82307           100.84686           120.13121           113.37484           101.36396           131.54493           101.77385           124.51207           123.38695           129.84547           134.82539           126.45963           104.61473           102.54352           129.92128           109.21088           119.20324           116.89409           134.69313            84.41044           105.30713           166.15239           132.56299           137.81341           123.11318           132.28811           101.67038           117.90831           101.36248           136.74082           104.99670           127.44467           131.12042           125.46534            94.10395           111.94261           114.17972            99.09983           134.66909           141.39385           133.61254           114.06808            91.64869            88.55791            90.19778            90.36590           111.49666           104.41743           117.08205           106.98988           112.83271           130.62394           122.92374            93.35651           109.51223           127.35095           111.27976           129.75327           114.38271           131.22839           130.64060            98.24112           136.11140           105.29364           109.70719           128.43624           125.59239           114.37909           118.15789           136.81645           125.58238           121.51761           154.59862           109.81057           135.97322           121.84367           103.83782           135.17912           106.38439           124.11838            96.70156           105.96274           144.31799           140.28669           121.68174           122.16056           118.22766           132.59757           126.11624           116.69812           112.40443           110.90507           112.54346           136.97086            94.12703           119.54557           113.60898           113.88699            98.43441            85.00322            92.85573           118.20153           120.81882           141.40454           106.66127           131.32440           107.79216           122.07127           117.01391           138.82749           118.46796           133.56014            99.54800           116.13375           103.50118           110.82691           101.84179           131.78450           117.03058           109.44904           113.67736           123.71186           100.39599           110.98186           101.07769            81.05848           128.64807           110.95680           129.92978           123.63001           131.84690           125.01886           130.13856           142.48976           120.75635           123.63888           142.19985           109.23327           101.79194           151.26602           122.39872           110.39696           123.03682           141.19713           121.32222           104.99991           128.91287           116.53335           102.52603           130.60683            96.88313           120.94959           166.42137            88.83991           142.03730           106.76529           135.04252           115.53000            87.54731           107.19083           123.40944           128.88603           121.39034           115.83296           142.18152           118.44279           118.12788           120.33753           111.82058           100.10686           141.93444            90.74337           101.55445           137.80664           107.87537           124.54347            93.93062           100.92233            89.42773           116.27958           116.43380           127.75029           120.73144           108.27958           115.75214           123.04283            99.09182            76.17478           136.75965           103.97494           116.87969           107.25352           109.44184           120.49195           134.14919            94.41228           101.19261            93.68445           131.27821           110.49457           134.50423            96.71023           123.70715           132.73509           114.24501            95.40516           135.91536           111.96233           121.70680           117.26169           126.65721           118.01115           128.78126           139.42889           123.17363           131.93029           115.63701           119.81382           108.33873           107.94089           106.03860           102.80534           120.77113           114.48754           121.56152           102.36067            94.13797           104.68507           108.65770            92.47405            94.94545           111.60098           101.16363           118.44189           120.99316           100.91501           133.60844           123.05771           112.64570           109.57366           139.11858           126.89973           123.54425           107.73945            88.83793            97.71735           131.39776           125.79796           109.31819           121.09373           147.53422           107.65808           125.44880           110.00039           106.16838           130.52646           116.52730           131.61792           160.88270           106.44636           118.36499           125.03812           106.55422           124.22409           114.67186            77.79696           105.87653           108.37001            93.21979           122.42225           135.46790           114.78344           118.97938            95.09511           141.81085           125.70111           130.76360           104.16399           122.85874            96.97485           118.24818           129.15100           150.20011           132.14101           113.79134           124.75089           136.40200           124.73363           107.13909            76.19989           104.41138           120.17860            98.49757           111.61556            94.59095           110.31839           117.24815           116.18943           122.46420           103.78198            94.60218           131.47651           141.59199           113.41796           118.85423           106.11174           119.24428           175.89450           120.66430           122.37542            91.37633           110.96732           112.70271           126.32362           122.84563           102.84498           131.11461           124.14419           126.54559           106.00910           110.15311           122.86528           127.19325           126.14075           114.20599           114.94297           122.88002           120.53805           136.85948           119.87816           129.11284           131.21043            98.86024           120.96414           135.04481           113.69504           123.51124           108.77166           133.18593           120.01353           122.85793           116.12919            96.55370            97.84544            83.22423           113.95449           126.49027           108.22966           109.32462           127.78654           144.28850           133.83499           117.53412            85.84130            75.70754           107.75477           115.19866           127.88551            84.62216           124.97447           102.54534            97.17129           109.82540           112.25847           118.36028           104.57305            86.95372           107.03213           122.58582           109.60803           119.66946           126.88463           116.88120            87.07799           126.53208           104.50940           103.08021           103.13497           111.16314           125.09491            82.75990           135.29440           106.27519           105.62073           131.04177           108.64123           121.32420           119.13377           102.67681           103.04296           126.56146           128.40442            84.17363           124.25613           109.34002           112.72857           127.50451           112.23400           163.31864           100.11639           118.39389           125.98773           104.56794           104.80609           100.24592            89.23761           139.96145           112.58799           110.82205           150.71332            99.55081           109.92497           108.82987           108.92471           123.33068           158.29672           122.27316           100.44601            96.24763           122.92376           155.03847           139.84824           137.98431            94.31089           136.77570           142.39735           105.28809           123.00466           111.59613            85.59024           127.53685           112.61187           110.96996            86.32482           130.40745           117.58614           100.30005           117.20694           115.17833           123.67319           119.92052           131.03681           129.49604            82.24426           117.63713            92.81926           100.49444           123.90416           122.69853           117.47998           132.10100           133.92933           109.51655           122.14647            89.40625           108.05550           101.18598           103.33468           123.64160           131.72670           111.47087           121.90660           100.85619           119.16753           104.05707           131.67763           121.72911           142.36721           100.40853            97.31973           111.70360           126.57806           118.45685           118.09689           115.26210           108.41296           124.16690           115.37297           116.03097           130.77090           102.42917           126.71026           143.84926           119.26784           137.08403           111.63713            89.60803           103.42679           119.97084           110.98109           114.16020           134.82264           122.71130           117.19253            94.17451           112.39796           136.58838           118.91183           126.63979            67.77598           117.12796            88.32419           116.14265            85.48731           122.04871           134.66451           137.16172           131.32741           112.09639            98.60330            99.64125            85.58788           128.39389           127.10265           112.99403           126.79444           100.76007           124.09098           133.97396            96.13844            83.43661           121.24003           102.60565            74.47767           122.92115            79.91251            92.36263           105.85075           120.79375            86.88260           119.74811           130.91338           117.36076           145.40252           108.67025            80.04919           131.77930           124.01065           120.62216            83.76952           124.33530           104.91806            95.11442           106.29841           194.22207           123.20603           116.22631           124.40614           110.21530           128.67115           122.21257           135.38179           124.84278           127.45763           125.69455           101.44537           126.49736           109.86133            99.36387           124.48144           140.32755           113.92398           115.89713           125.54644            90.43297           112.82329           128.36762           127.01268           114.04432           116.37290           109.74799            97.04970           106.69147           104.28601           123.68360           108.00572           126.75325            98.09122            88.09251           101.81828            99.77478            99.54160            96.34885           120.56071           124.32396           117.80634           130.65018            94.94664           120.96436           118.82228            92.16722           108.68399           114.68986           131.02744           117.74434           114.26691           127.27877           103.14093           111.77326           115.56292           124.22223           104.88914           125.06043           128.95076           125.14319           119.80176           106.55573           123.98095           115.53753           114.80452           115.77086           137.86652           121.36796           120.43186           105.08866           130.80413           101.79151            97.37145           112.00969           132.99594           107.75930           129.08275           100.08155           120.23345           114.90819            86.71864           136.57491           154.09710           116.68885           124.99093           102.59325           117.81057           118.34309           105.05033           115.08365           112.09325           111.55024            81.61719           120.45398           137.84644           141.81988           139.57485           107.71962           115.34588           123.17816           101.79657            97.63736           114.92286           117.91243           103.29532           119.60140           115.64171           130.42687            83.04093           113.29667           108.23541           128.88217           129.47301            88.90694           130.14199           114.93651           108.62660           110.51626           128.34132           118.85524           102.72040           115.71419           110.39564           127.08433           123.89735           116.18464           106.05961           115.17031           120.85688           124.22357           119.07952            93.50985            96.47584           127.39775           110.46237           115.43194           126.55042           112.84755           109.33216           108.58756           117.78580           119.21844           104.67300            96.30967            80.82563           115.93804           114.11417           125.55501           124.85359            93.49258           117.08972            89.23342           133.48483           113.20249           129.45871           101.51333            96.09802           115.22170           113.43626           108.53647           107.33334           103.09876            92.07300           118.64390           124.63693            94.41642            91.35547           116.36469            93.71198           121.62133           126.17482            75.20013           115.66098           104.20642            78.63569            90.35983           133.27698           143.77197           143.02291           112.81489           126.73083            87.49289           111.90575           120.08102           107.37324           122.92903           110.82986            90.82088           112.67082           112.85226           106.34916           112.52640           102.16707            85.36503           113.89517           131.26618           132.35973            92.81783           125.66212           113.91543            89.36377           115.52636           102.85860           101.84492           105.89586           106.05246           136.58648           113.79097           104.99742           126.63454           133.59050           128.45147           108.13316           123.28306           133.64784           126.09299           124.95815           115.61566           132.30509            92.87736            90.29773           120.81301            94.57921            97.65162           138.46282           134.24392           118.67728           113.54896           112.97683            97.41962           139.76038           117.02336           135.49444           122.48977           137.17081           114.26184           127.80234           109.80277           108.88097           126.62812           136.73288           124.22517           108.87528           120.99797           133.04510            83.51775           130.12526           130.70200           117.00790            92.42203           142.45608           103.12257           125.78458           116.02928           122.04769           126.01420            82.39147           120.30139           113.68388           107.54620           120.36671            77.96002           129.45279           124.09059           123.89080           110.73214           118.43918           128.72287           125.31206           111.42111           114.83986           115.75319           111.16836           133.03789           123.01858           126.48798           105.46638           117.36001           121.61771           115.40314            70.18731           115.56252           134.16760           112.39599           117.90242           130.71697           135.20896  