# vtk DataFile Version 3.0
Output from R3t
ASCII
DATASET UNSTRUCTURED_GRID
POINTS       6984 double
      0.32220000E+02      0.32510000E+02     -0.60022762E+01
      0.32220000E+02     -0.54200000E+01     -0.62416000E+01
     -0.53700000E+01     -0.54200000E+01     -0.45992692E+01
     -0.53700000E+01      0.32510000E+02     -0.44210816E+01
      0.32220000E+02      0.32510000E+02     -0.39552276E+02
      0.32220000E+02     -0.54200000E+01     -0.39791600E+02
     -0.53700000E+01     -0.54200000E+01     -0.38149269E+02
     -0.53700000E+01      0.32510000E+02     -0.37971082E+02
      0.21571000E+03      0.21600000E+03     -0.60852000E+01
      0.21571000E+03     -0.18891000E+03     -0.62416000E+01
     -0.18886000E+03     -0.18891000E+03     -0.45045000E+01
     -0.18886000E+03      0.21600000E+03     -0.44240000E+01
      0.00000000E+00      0.98900000E+01     -0.27504500E+02
      0.00000000E+00      0.98900000E+01     -0.26504500E+02
      0.00000000E+00      0.98900000E+01     -0.25504500E+02
      0.00000000E+00      0.98900000E+01     -0.24504500E+02
      0.00000000E+00      0.98900000E+01     -0.23504500E+02
      0.00000000E+00      0.98900000E+01     -0.22504500E+02
      0.00000000E+00      0.98900000E+01     -0.21504500E+02
      0.00000000E+00      0.98900000E+01     -0.20504500E+02
      0.00000000E+00      0.98900000E+01     -0.19504500E+02
      0.00000000E+00      0.98900000E+01     -0.18504500E+02
      0.00000000E+00      0.98900000E+01     -0.17504500E+02
      0.00000000E+00      0.98900000E+01     -0.16504500E+02
      0.00000000E+00      0.98900000E+01     -0.15504500E+02
      0.00000000E+00      0.98900000E+01     -0.14504500E+02
      0.00000000E+00      0.98900000E+01     -0.13504500E+02
      0.00000000E+00      0.98900000E+01     -0.12504500E+02
      0.00000000E+00      0.98900000E+01     -0.11504500E+02
      0.00000000E+00      0.98900000E+01     -0.10504500E+02
      0.00000000E+00      0.98900000E+01     -0.95045000E+01
      0.00000000E+00      0.98900000E+01     -0.85045000E+01
      0.00000000E+00      0.98900000E+01     -0.75045000E+01
      0.00000000E+00      0.98900000E+01     -0.65045000E+01
      0.00000000E+00      0.98900000E+01     -0.55045000E+01
      0.00000000E+00      0.98900000E+01     -0.45045000E+01
      0.94700000E+01      0.27090000E+02     -0.44240000E+01
      0.94700000E+01      0.27090000E+02     -0.54240000E+01
      0.94700000E+01      0.27090000E+02     -0.64240000E+01
      0.94700000E+01      0.27090000E+02     -0.74240000E+01
      0.94700000E+01      0.27090000E+02     -0.84240000E+01
      0.94700000E+01      0.27090000E+02     -0.94240000E+01
      0.94700000E+01      0.27090000E+02     -0.10424000E+02
      0.94700000E+01      0.27090000E+02     -0.11424000E+02
      0.94700000E+01      0.27090000E+02     -0.12424000E+02
      0.94700000E+01      0.27090000E+02     -0.13424000E+02
      0.94700000E+01      0.27090000E+02     -0.14424000E+02
      0.94700000E+01      0.27090000E+02     -0.15424000E+02
      0.94700000E+01      0.27090000E+02     -0.16424000E+02
      0.94700000E+01      0.27090000E+02     -0.17424000E+02
      0.94700000E+01      0.27090000E+02     -0.18424000E+02
      0.94700000E+01      0.27090000E+02     -0.19424000E+02
      0.94700000E+01      0.27090000E+02     -0.20424000E+02
      0.94700000E+01      0.27090000E+02     -0.21424000E+02
      0.94700000E+01      0.27090000E+02     -0.22424000E+02
      0.94700000E+01      0.27090000E+02     -0.23424000E+02
      0.94700000E+01      0.27090000E+02     -0.24424000E+02
      0.94700000E+01      0.27090000E+02     -0.25424000E+02
      0.94700000E+01      0.27090000E+02     -0.26424000E+02
      0.94700000E+01      0.27090000E+02     -0.27424000E+02
      0.10980000E+02      0.14860000E+02     -0.20009430E+01
      0.10980000E+02      0.14860000E+02     -0.30009430E+01
      0.10980000E+02      0.14860000E+02     -0.40009430E+01
      0.10980000E+02      0.14860000E+02     -0.50009430E+01
      0.10980000E+02      0.14860000E+02     -0.60009430E+01
      0.10980000E+02      0.14860000E+02     -0.70009430E+01
      0.10980000E+02      0.14860000E+02     -0.80009430E+01
      0.10980000E+02      0.14860000E+02     -0.90009430E+01
      0.10980000E+02      0.14860000E+02     -0.10000943E+02
      0.10980000E+02      0.14860000E+02     -0.11000943E+02
      0.10980000E+02      0.14860000E+02     -0.12000943E+02
      0.10980000E+02      0.14860000E+02     -0.13000943E+02
      0.10980000E+02      0.14860000E+02     -0.14000943E+02
      0.10980000E+02      0.14860000E+02     -0.15000943E+02
      0.10980000E+02      0.14860000E+02     -0.16000943E+02
      0.10980000E+02      0.14860000E+02     -0.17000943E+02
      0.10980000E+02      0.14860000E+02     -0.18000943E+02
      0.10980000E+02      0.14860000E+02     -0.19000943E+02
      0.10980000E+02      0.14860000E+02     -0.20000943E+02
      0.10980000E+02      0.14860000E+02     -0.21000943E+02
      0.10980000E+02      0.14860000E+02     -0.22000943E+02
      0.10980000E+02      0.14860000E+02     -0.23000943E+02
      0.10980000E+02      0.14860000E+02     -0.24000943E+02
      0.10980000E+02      0.14860000E+02     -0.25000943E+02
      0.26850000E+02      0.17850000E+02     -0.60849799E+01
      0.26850000E+02      0.17850000E+02     -0.70849799E+01
      0.26850000E+02      0.17850000E+02     -0.80849799E+01
      0.26850000E+02      0.17850000E+02     -0.90849799E+01
      0.26850000E+02      0.17850000E+02     -0.10084980E+02
      0.26850000E+02      0.17850000E+02     -0.11084980E+02
      0.26850000E+02      0.17850000E+02     -0.12084980E+02
      0.26850000E+02      0.17850000E+02     -0.13084980E+02
      0.26850000E+02      0.17850000E+02     -0.14084980E+02
      0.26850000E+02      0.17850000E+02     -0.15084980E+02
      0.26850000E+02      0.17850000E+02     -0.16084980E+02
      0.26850000E+02      0.17850000E+02     -0.17084980E+02
      0.26850000E+02      0.17850000E+02     -0.18084980E+02
      0.26850000E+02      0.17850000E+02     -0.19084980E+02
      0.26850000E+02      0.17850000E+02     -0.20084980E+02
      0.26850000E+02      0.17850000E+02     -0.21084980E+02
      0.26850000E+02      0.17850000E+02     -0.22084980E+02
      0.26850000E+02      0.17850000E+02     -0.23084980E+02
      0.26850000E+02      0.17850000E+02     -0.24084980E+02
      0.26850000E+02      0.17850000E+02     -0.25084980E+02
      0.26850000E+02      0.17850000E+02     -0.26084980E+02
      0.26850000E+02      0.17850000E+02     -0.27084980E+02
      0.26850000E+02      0.17850000E+02     -0.28084980E+02
      0.26850000E+02      0.17850000E+02     -0.29084980E+02
      0.18640000E+02      0.00000000E+00     -0.62416000E+01
      0.18640000E+02      0.00000000E+00     -0.72416000E+01
      0.18640000E+02      0.00000000E+00     -0.82416000E+01
      0.18640000E+02      0.00000000E+00     -0.92416000E+01
      0.18640000E+02      0.00000000E+00     -0.10241600E+02
      0.18640000E+02      0.00000000E+00     -0.11241600E+02
      0.18640000E+02      0.00000000E+00     -0.12241600E+02
      0.18640000E+02      0.00000000E+00     -0.13241600E+02
      0.18640000E+02      0.00000000E+00     -0.14241600E+02
      0.18640000E+02      0.00000000E+00     -0.15241600E+02
      0.18640000E+02      0.00000000E+00     -0.16241600E+02
      0.18640000E+02      0.00000000E+00     -0.17241600E+02
      0.18640000E+02      0.00000000E+00     -0.18241600E+02
      0.18640000E+02      0.00000000E+00     -0.19241600E+02
      0.18640000E+02      0.00000000E+00     -0.20241600E+02
      0.18640000E+02      0.00000000E+00     -0.21241600E+02
      0.18640000E+02      0.00000000E+00     -0.22241600E+02
      0.18640000E+02      0.00000000E+00     -0.23241600E+02
      0.18640000E+02      0.00000000E+00     -0.24241600E+02
      0.18640000E+02      0.00000000E+00     -0.25241600E+02
      0.18640000E+02      0.00000000E+00     -0.26241600E+02
      0.18640000E+02      0.00000000E+00     -0.27241600E+02
      0.18640000E+02      0.00000000E+00     -0.28241600E+02
      0.18640000E+02      0.00000000E+00     -0.29241600E+02
      0.32220000E+02      0.31324687E+02     -0.60022762E+01
      0.32220000E+02      0.30139375E+02     -0.60022762E+01
      0.32220000E+02      0.28954062E+02     -0.60852000E+01
      0.32220000E+02      0.27768750E+02     -0.60852000E+01
      0.32220000E+02      0.26583437E+02     -0.60852000E+01
      0.32220000E+02      0.25398125E+02     -0.60852000E+01
      0.32220000E+02      0.24212812E+02     -0.60852000E+01
      0.32220000E+02      0.23027500E+02     -0.60852000E+01
      0.32220000E+02      0.21842188E+02     -0.60852000E+01
      0.32220000E+02      0.20656875E+02     -0.60852000E+01
      0.32220000E+02      0.19471563E+02     -0.60852000E+01
      0.32220000E+02      0.18286250E+02     -0.60852000E+01
      0.32220000E+02      0.17100938E+02     -0.60852000E+01
      0.32220000E+02      0.15915625E+02     -0.60852000E+01
      0.32220000E+02      0.14730313E+02     -0.60852000E+01
      0.32220000E+02      0.13545000E+02     -0.60849799E+01
      0.32220000E+02      0.12359687E+02     -0.60791901E+01
      0.32220000E+02      0.11174375E+02     -0.60791901E+01
      0.32220000E+02      0.99890625E+01     -0.60537047E+01
      0.32220000E+02      0.88037500E+01     -0.60698482E+01
      0.32220000E+02      0.76184375E+01     -0.61265914E+01
      0.32220000E+02      0.64331250E+01     -0.61265914E+01
      0.32220000E+02      0.52478125E+01     -0.61265914E+01
      0.32220000E+02      0.40625000E+01     -0.61726076E+01
      0.32220000E+02      0.28771875E+01     -0.61726076E+01
      0.32220000E+02      0.16918750E+01     -0.61726076E+01
      0.32220000E+02      0.50656250E+00     -0.61712132E+01
      0.32220000E+02     -0.67875000E+00     -0.61712132E+01
      0.32220000E+02     -0.18640625E+01     -0.61750523E+01
      0.32220000E+02     -0.30493750E+01     -0.62270641E+01
[...]
POINT_DATA      6984
CELL_DATA     36929
SCALARS Resistivity(ohm.m) double 1
LOOKUP_TABLE default
           134.69552           157.30350            67.08433           183.92007           546.00037            85.14046            77.39577            22.52973           104.68216            74.70771           132.39785           117.26822           207.63917            69.49139            84.35319           150.93166           232.27486            29.80770            76.11366           317.46137           106.67682            67.33205            77.85693            52.16332            40.18084            14.50653            96.08836            83.99778            44.34837            75.81654           124.96221            36.53506            93.29443           103.50856            25.22796            71.83480            22.39683            62.69398            26.24149            73.73317           106.48614            74.97357           112.12318           102.98939            75.99244            36.61735            53.62883            79.16859            60.17802            60.86524            69.07555            76.94557           158.41218           101.16603            15.83128            42.44196            63.81200            81.94345           104.35610           175.06696            92.02882            89.68730           134.29554            54.58314           104.79385            26.49817            87.29940            68.53237            65.77782           307.18282           106.38783           303.92903            19.94976           106.63547            93.41532            74.68278           127.59947            89.27993            76.05546           151.44618           101.14817           106.60277           108.42065            91.13856           180.45383            17.62083            19.17480            89.03506            34.49373            59.01371            53.25180           109.82885            88.94062           162.40345           133.76596           116.56042            76.52906            73.67540            26.89204            73.97335            83.70779            73.51173            95.27787            74.77470            61.18269            59.44088            92.69518           161.49919           101.20582           110.38424            24.27145            84.71965            76.58140            14.93012            12.53840            23.34159            16.27212            18.52921           121.11529           328.76174            98.80448           124.07000           100.25652            16.07489            47.20295            68.40239            72.15634            69.64507           125.48165           114.02398            41.57166            62.30115           105.10857            67.55790            87.05309           230.48013            84.37360            59.69001            86.79470            73.47830            66.88297            37.96713           125.52515           129.19518            68.00233            78.26531           111.05773            84.61274            57.55975            13.45810            71.67419           147.91233           135.58520           104.92799           154.18461           265.01072            81.66258            45.79590            29.03300            71.74855            97.97914            89.89846            18.05083           121.73767            51.41935           692.27449            75.31376            18.43279           153.52783            62.72181           112.62973            74.56023           150.75115            86.52043           186.07523           113.40364            75.30895           146.62100            21.99973            63.46746            88.49161            57.08241            37.77909            67.16788           380.87478           151.84408           130.79731            51.68715           171.66364            65.78374            72.10974            28.04457           107.39136            52.16396           199.83413           143.67648            77.79432            23.10513            75.33095            75.72862            23.81089           179.76644           289.58393            92.46362            44.27322            52.35232            13.59446            35.60392           110.06128           112.94023            74.23921            69.85791            20.88757            95.71365           139.57162            96.11283            54.27516            55.64065            66.60008            80.22087           265.76567            72.79060           140.01916            71.09827            15.91795            63.81956            33.65322            83.27425           113.62690           121.74252            29.37889            30.09613            80.90703            61.50961            98.64553           143.65810           119.22633           167.43154            88.50593            64.58826            82.22009            87.70892            50.70408            16.41243            79.73024           160.42870           186.73105           108.03418            88.33479            99.09596           151.00627           123.61108           177.89721            42.55500            77.67777            72.97814           233.10135            25.20727           104.98041            74.28583            61.53160            23.46172            47.44915            35.30203            81.42835            57.66557           162.52205            66.90642           144.51461            86.57709           151.85864            83.64196           115.49521           101.35201            79.25619            72.24172            77.35985            39.30886            53.31626            23.28705           339.78789            34.11594            44.95159            65.32737           180.35612            26.19228            39.82159            28.39786            58.65036            73.59597           105.12696           145.48133           130.17996            63.73355            55.59296           131.51592            77.03820            81.55739           133.09059           302.61594           162.95008            58.72219           146.67601           127.19450            66.98564           125.63302            72.21253           109.72175            43.21875           133.37034            81.78537            28.94259           141.62171            26.82956           101.16659           289.26791            39.43148           202.47026            53.41777            99.70764            54.62928            27.14781            64.73173           108.38319           116.21064           102.56566            32.26918            72.32472            82.12342           122.15249           262.22458            25.23256            20.62212           148.60416            15.02227            33.17833            77.54224            65.20385           112.68759            33.66510            67.81769            45.24427           157.37885            83.05910            69.03483           105.18383            44.61462            79.10659           122.78826            19.53096             5.84721           137.48261            39.45964            79.92931            20.90301            30.53097            68.19880           268.49713            46.73545           257.64646            22.44979           138.96302            78.70870           199.87081            25.06982           118.50343           150.25923            69.92416            20.44090           110.70746            72.28071           110.45417            78.12509            82.18654            84.88698           139.31344           160.39020           127.92895           170.53602            75.86768           109.96448            30.68346            32.87407            30.95218            63.28033           111.90470           100.17850           105.61686            62.48018            50.75874            34.61009            63.84228            94.96066            50.78558           104.50382            64.80768            86.03783           111.62424            61.49943            49.45559           115.05414           118.08361            54.78759           513.39645           183.30084            94.96867            25.31372            37.09319            24.32550           180.74126           118.19496            73.21865            58.68750           111.71108            39.42949           125.49968            86.54339            70.47732           146.79743            50.41177           189.24692           294.12296            58.96019            85.16862           215.90680            59.18588           124.68894            77.36013            27.51118            23.44023            94.17607            21.80395            78.68250           150.76825            73.21844            83.36264            36.27241           181.13085           204.15638           155.11403            28.80952            87.30030            30.86611            70.14462            65.95455           153.60575           177.87982            64.70992           124.38781            61.87372           126.04466            67.45116            38.42573            25.94351            99.43832            17.47073            82.72905            19.12921            25.75214           100.78393            31.98116           126.73704           113.09464            21.84345           138.74514            73.30619            61.70990            87.08519           163.52814           105.03150           154.31673            79.47561           220.62424            63.70622            73.66316            96.12428           127.90472           129.12743            30.60949           158.72426           100.26519           127.63437            87.75589            81.56674           126.42508           160.23320            98.24794            62.08867            86.53603           119.74974            63.14293            79.81521            98.36164            71.35951           153.41471            21.11674           123.23197           110.74789            75.34773           117.50659            32.73498            48.94943            98.57997           114.33852            80.25135            21.05040            81.14292             9.57675            52.11765           140.64039            21.01179            71.35516           385.01445           153.42527           148.07444            46.49689             6.20268            14.27371           113.03910            72.19862           244.57824            89.10048            47.78048            28.85703            14.46498           184.13594            72.91289            82.65083            67.23774            36.59531            33.84518           113.57472            30.14721           124.94847            84.28080            60.00365             7.12607           160.22849            31.26414            23.54440            66.44000            77.66568            86.08924            52.82055           197.48303           101.71651            71.32521           140.47211            29.88510           112.31835            88.90431            66.08382            85.77800            63.05721            70.36922            22.74327           191.53144            68.81303           113.07771           121.74707            93.94135           186.24888            30.63784           100.43247           161.55943            33.74787            73.44979            19.87769            28.98852           164.39389            44.64773            89.96236           276.54674            36.97345            86.88328            71.35737            62.05709           122.07013           342.37495            56.79257            66.48548            19.03552           108.56560           209.50407           230.88246           162.21319            54.31933           153.63926            72.81880            23.19418            76.88541            39.63393            26.73715            58.96827            43.88144            35.84789            53.14850           299.28281            87.63993            26.69052           218.17019            71.51066            39.77733            63.66362           188.70701           146.39892            19.15825            68.81046            18.60393            16.42271           148.39541           113.88479            81.21472           104.58220            50.75511            88.07155           113.84166            27.49144            52.73347            16.89858            22.83723           263.13747           146.38102            71.76872           108.86458            50.20554           110.92759            31.37635           161.17377           109.54610            72.88465            68.72962            25.33918            72.89941           127.65765            93.48864            80.63816            54.85914            37.13927            94.73361            76.34646            79.20965            50.26225            35.99026           128.90414           186.70321           142.14664           201.56485            67.36727            52.39329            88.48044            76.93323            76.25922            72.43449            52.45313           130.82640            83.27570            57.18783           101.07214           160.50233           105.07006           232.34576             5.76459           175.40623            13.06744            79.13609            13.72332           164.09250           147.62214            78.62780           100.61924            45.93813            32.74249            38.33357            26.03008           160.60562           136.56618            68.29863            82.36083            40.32049           120.01277           136.58363            16.12116            11.65449           118.99189            27.31623            13.74482           119.24355            13.50548            23.83398            64.10323           123.48743            12.29142           146.64118            75.28991           124.35780           263.34859            72.58261            24.22462           144.78301           120.39293           103.09869            10.43141           111.41730            61.70566            24.23520            56.49144           364.68772           114.55706            74.89897            73.65989            37.40139           130.72530           106.87307           176.43272           126.31544           139.18627           171.85581            31.87137           121.07955            66.06375            33.45476            99.35669           173.82809           115.22696            74.92048            57.54165            62.79483            96.87419           156.65484           137.44802            71.48742            37.31918            68.38812            16.93388            64.81973            37.57546            96.76452            34.89242           126.21608            93.22831            16.63576            17.55068            15.74802            55.44589            28.26111           101.41326           170.74584            37.06372           140.18984            30.97766            66.14749            91.60137            13.23029            76.62908            50.91322           306.78175            65.96440            56.17415           211.33708            35.01623           120.23298            70.82902           120.81845            21.71609           120.72530            77.67683           221.44874            98.42042            48.02828            93.67783            96.18846            76.67708            81.16674           166.87232            54.41424            99.18872            94.42936           147.21465            36.91681            21.24601            68.28203           154.45579            50.16439           137.54489            18.33585            86.19188            59.30537            29.28748           106.42590           119.81280           173.50844            83.20192            22.43400            34.84663            68.22864           103.09538            85.39741            36.21564            26.99409             8.59376            67.78470           114.14592           171.68040           201.22869            62.54380            78.21352            47.66539            29.94258            29.73574            62.51506            66.20489            33.10014            88.84332            73.93741            69.27667             9.49383           102.44573            28.84309           133.95456            68.78526            32.55930            89.34661            72.92177            41.07588           119.69650            71.22901            66.41637            78.14009            75.42972            73.53525            99.06186            95.18425            73.39101            58.48152            70.75286           128.73161           151.48933            67.48859            16.71575            27.84738           265.17930            38.50218            71.09247           132.32509            71.57118            73.87150            75.48134            97.33603           105.27692            64.23653            19.22182            19.79111            78.49236            80.76274            76.36917           126.33083            20.48470            95.90704            14.24962           247.00852            70.54794            91.77008            29.25526            14.06400            80.09215           106.27368            88.52055            75.12275            32.66264            38.27935            85.55086           124.29313            52.91801            36.72565            66.13878            37.17945           113.81735           131.09337             5.54544            81.00224            31.67475            23.67624            14.96311           159.60916            76.10060            96.43641           104.48714           133.91001            17.41479            61.38318            75.36109            70.02689           123.12740            71.71479            19.67959            63.93229           112.82052            57.74460            97.31699            63.44720            12.26589            74.61307            59.65636           272.67639            13.89064            68.14116            97.79336            13.99816            60.66661            76.75169            83.27877            70.59835            23.93198            92.96290            85.78517            89.80000           114.17859           154.00034           121.13994            61.65947            94.14721           130.59226            77.57750           127.34757            78.42369            56.17564            43.83909            14.99449            89.17087            18.72041            39.69456           167.90878           260.36451            75.04273            62.52801            48.58839            14.38278           284.26608           106.96553           153.10700            46.55964           142.37828           111.49702            91.77726            78.74194            33.55411           124.96277           493.13914           121.58346            62.58878            99.40740            77.41331            14.32847           141.32419            99.82003            86.85114            13.53940           410.97587            23.55158           104.78650            90.71475           103.70889           130.26364            13.83764            32.41084            97.55601            26.78941           111.69191             6.57242           292.20927            61.52703            61.37310            89.37770           104.16398           144.52689           169.81503           110.41401           107.43584            74.18965            75.23738           148.52625           129.67878           129.67386            72.45427            95.86378            69.46651            70.46550            21.09699            51.75895           175.11192            98.97965           173.60458           162.83545            98.53820  