# vtk DataFile Version 3.0
Output from R3t
ASCII
DATASET UNSTRUCTURED_GRID
POINTS       2013 double
      0.32220000E+02      0.32510000E+02     -0.59627149E+01
      0.32220000E+02     -0.54200000E+01     -0.62416000E+01
     -0.53700000E+01     -0.54200000E+01     -0.47973441E+01
     -0.53700000E+01      0.32510000E+02     -0.44240000E+01
      0.32220000E+02      0.32510000E+02     -0.39512715E+02
      0.32220000E+02     -0.54200000E+01     -0.39791600E+02
     -0.53700000E+01     -0.54200000E+01     -0.38347344E+02
     -0.53700000E+01      0.32510000E+02     -0.37974000E+02
      0.21571000E+03      0.21600000E+03     -0.60852000E+01
      0.21571000E+03     -0.18891000E+03     -0.62416000E+01
     -0.18886000E+03     -0.18891000E+03     -0.45045000E+01
     -0.18886000E+03      0.21600000E+03     -0.44240000E+01
      0.21571000E+03      0.21600000E+03     -0.22312520E+03
      0.21571000E+03     -0.18891000E+03     -0.22328160E+03
     -0.18886000E+03     -0.18891000E+03     -0.22154450E+03
     -0.18886000E+03      0.21600000E+03     -0.22146400E+03
      0.00000000E+00      0.98900000E+01     -0.27504500E+02
      0.00000000E+00      0.98900000E+01     -0.26504500E+02
      0.00000000E+00      0.98900000E+01     -0.25504500E+02
      0.00000000E+00      0.98900000E+01     -0.24504500E+02
      0.00000000E+00      0.98900000E+01     -0.23504500E+02
      0.00000000E+00      0.98900000E+01     -0.22504500E+02
      0.00000000E+00      0.98900000E+01     -0.21504500E+02
      0.00000000E+00      0.98900000E+01     -0.20504500E+02
      0.00000000E+00      0.98900000E+01     -0.19504500E+02
      0.00000000E+00      0.98900000E+01     -0.18504500E+02
      0.00000000E+00      0.98900000E+01     -0.17504500E+02
      0.00000000E+00      0.98900000E+01     -0.16504500E+02
      0.00000000E+00      0.98900000E+01     -0.15504500E+02
      0.00000000E+00      0.98900000E+01     -0.14504500E+02
      0.00000000E+00      0.98900000E+01     -0.13504500E+02
      0.00000000E+00      0.98900000E+01     -0.12504500E+02
      0.00000000E+00      0.98900000E+01     -0.11504500E+02
      0.00000000E+00      0.98900000E+01     -0.10504500E+02
      0.00000000E+00      0.98900000E+01     -0.95045000E+01
      0.00000000E+00      0.98900000E+01     -0.85045000E+01
      0.00000000E+00      0.98900000E+01     -0.75045000E+01
      0.00000000E+00      0.98900000E+01     -0.65045000E+01
      0.00000000E+00      0.98900000E+01     -0.55045000E+01
      0.00000000E+00      0.98900000E+01     -0.45045000E+01
      0.94700000E+01      0.27090000E+02     -0.44240000E+01
      0.94700000E+01      0.27090000E+02     -0.54240000E+01
      0.94700000E+01      0.27090000E+02     -0.64240000E+01
      0.94700000E+01      0.27090000E+02     -0.74240000E+01
      0.94700000E+01      0.27090000E+02     -0.84240000E+01
      0.94700000E+01      0.27090000E+02     -0.94240000E+01
      0.94700000E+01      0.27090000E+02     -0.10424000E+02
      0.94700000E+01      0.27090000E+02     -0.11424000E+02
      0.94700000E+01      0.27090000E+02     -0.12424000E+02
      0.94700000E+01      0.27090000E+02     -0.13424000E+02
      0.94700000E+01      0.27090000E+02     -0.14424000E+02
      0.94700000E+01      0.27090000E+02     -0.15424000E+02
      0.94700000E+01      0.27090000E+02     -0.16424000E+02
      0.94700000E+01      0.27090000E+02     -0.17424000E+02
      0.94700000E+01      0.27090000E+02     -0.18424000E+02
      0.94700000E+01      0.27090000E+02     -0.19424000E+02
      0.94700000E+01      0.27090000E+02     -0.20424000E+02
      0.94700000E+01      0.27090000E+02     -0.21424000E+02
      0.94700000E+01      0.27090000E+02     -0.22424000E+02
      0.94700000E+01      0.27090000E+02     -0.23424000E+02
      0.94700000E+01      0.27090000E+02     -0.24424000E+02
      0.94700000E+01      0.27090000E+02     -0.25424000E+02
      0.94700000E+01      0.27090000E+02     -0.26424000E+02
      0.94700000E+01      0.27090000E+02     -0.27424000E+02
      0.10980000E+02      0.14860000E+02     -0.20009430E+01
      0.10980000E+02      0.14860000E+02     -0.30009430E+01
      0.10980000E+02      0.14860000E+02     -0.40009430E+01
      0.10980000E+02      0.14860000E+02     -0.50009430E+01
      0.10980000E+02      0.14860000E+02     -0.60009430E+01
      0.10980000E+02      0.14860000E+02     -0.70009430E+01
      0.10980000E+02      0.14860000E+02     -0.80009430E+01
      0.10980000E+02      0.14860000E+02     -0.90009430E+01
      0.10980000E+02      0.14860000E+02     -0.10000943E+02
      0.10980000E+02      0.14860000E+02     -0.11000943E+02
      0.10980000E+02      0.14860000E+02     -0.12000943E+02
      0.10980000E+02      0.14860000E+02     -0.13000943E+02
      0.10980000E+02      0.14860000E+02     -0.14000943E+02
      0.10980000E+02      0.14860000E+02     -0.15000943E+02
      0.10980000E+02      0.14860000E+02     -0.16000943E+02
      0.10980000E+02      0.14860000E+02     -0.17000943E+02
      0.10980000E+02      0.14860000E+02     -0.18000943E+02
      0.10980000E+02      0.14860000E+02     -0.19000943E+02
      0.10980000E+02      0.14860000E+02     -0.20000943E+02
      0.10980000E+02      0.14860000E+02     -0.21000943E+02
      0.10980000E+02      0.14860000E+02     -0.22000943E+02
      0.10980000E+02      0.14860000E+02     -0.23000943E+02
      0.10980000E+02      0.14860000E+02     -0.24000943E+02
      0.10980000E+02      0.14860000E+02     -0.25000943E+02
      0.26850000E+02      0.17850000E+02     -0.60849799E+01
      0.26850000E+02      0.17850000E+02     -0.70849799E+01
      0.26850000E+02      0.17850000E+02     -0.80849799E+01
      0.26850000E+02      0.17850000E+02     -0.90849799E+01
      0.26850000E+02      0.17850000E+02     -0.10084980E+02
      0.26850000E+02      0.17850000E+02     -0.11084980E+02
      0.26850000E+02      0.17850000E+02     -0.12084980E+02
      0.26850000E+02      0.17850000E+02     -0.13084980E+02
      0.26850000E+02      0.17850000E+02     -0.14084980E+02
      0.26850000E+02      0.17850000E+02     -0.15084980E+02
      0.26850000E+02      0.17850000E+02     -0.16084980E+02
      0.26850000E+02      0.17850000E+02     -0.17084980E+02
      0.26850000E+02      0.17850000E+02     -0.18084980E+02
      0.26850000E+02      0.17850000E+02     -0.19084980E+02
      0.26850000E+02      0.17850000E+02     -0.20084980E+02
      0.26850000E+02      0.17850000E+02     -0.21084980E+02
      0.26850000E+02      0.17850000E+02     -0.22084980E+02
      0.26850000E+02      0.17850000E+02     -0.23084980E+02
      0.26850000E+02      0.17850000E+02     -0.24084980E+02
      0.26850000E+02      0.17850000E+02     -0.25084980E+02
      0.26850000E+02      0.17850000E+02     -0.26084980E+02
      0.26850000E+02      0.17850000E+02     -0.27084980E+02
      0.26850000E+02      0.17850000E+02     -0.28084980E+02
      0.26850000E+02      0.17850000E+02     -0.29084980E+02
      0.18640000E+02      0.00000000E+00     -0.62416000E+01
      0.18640000E+02      0.00000000E+00     -0.72416000E+01
      0.18640000E+02      0.00000000E+00     -0.82416000E+01
      0.18640000E+02      0.00000000E+00     -0.92416000E+01
      0.18640000E+02      0.00000000E+00     -0.10241600E+02
      0.18640000E+02      0.00000000E+00     -0.11241600E+02
      0.18640000E+02      0.00000000E+00     -0.12241600E+02
      0.18640000E+02      0.00000000E+00     -0.13241600E+02
      0.18640000E+02      0.00000000E+00     -0.14241600E+02
      0.18640000E+02      0.00000000E+00     -0.15241600E+02
      0.18640000E+02      0.00000000E+00     -0.16241600E+02
      0.18640000E+02      0.00000000E+00     -0.17241600E+02
      0.18640000E+02      0.00000000E+00     -0.18241600E+02
      0.18640000E+02      0.00000000E+00     -0.19241600E+02
      0.18640000E+02      0.00000000E+00     -0.20241600E+02
      0.18640000E+02      0.00000000E+00     -0.21241600E+02
      0.18640000E+02      0.00000000E+00     -0.22241600E+02
      0.18640000E+02      0.00000000E+00     -0.23241600E+02
      0.18640000E+02      0.00000000E+00     -0.24241600E+02
      0.18640000E+02      0.00000000E+00     -0.25241600E+02
      0.18640000E+02      0.00000000E+00     -0.26241600E+02
      0.18640000E+02      0.00000000E+00     -0.27241600E+02
      0.18640000E+02      0.00000000E+00     -0.28241600E+02
      0.18640000E+02      0.00000000E+00     -0.29241600E+02
      0.32220000E+02      0.26188333E+02     -0.60852000E+01
      0.32220000E+02      0.19866667E+02     -0.60852000E+01
      0.32220000E+02      0.13545000E+02     -0.60912602E+01
      0.32220000E+02      0.72233333E+01     -0.60927284E+01
      0.32220000E+02      0.90166667E+00     -0.61657004E+01
      0.25955000E+02     -0.54200000E+01     -0.62416000E+01
      0.19690000E+02     -0.54200000E+01     -0.62416000E+01
      0.13425000E+02     -0.54200000E+01     -0.59612523E+01
      0.71600000E+01     -0.54200000E+01     -0.54624868E+01
      0.89500000E+00     -0.54200000E+01     -0.49987621E+01
     -0.53700000E+01      0.90166667E+00     -0.45045000E+01
     -0.53700000E+01      0.72233333E+01     -0.45045000E+01
     -0.53700000E+01      0.13545000E+02     -0.45045000E+01
     -0.53700000E+01      0.19866667E+02     -0.44552769E+01
     -0.53700000E+01      0.26188333E+02     -0.43262934E+01
      0.89500000E+00      0.32510000E+02     -0.44240000E+01
      0.71600000E+01      0.32510000E+02     -0.44240000E+01
      0.13425000E+02      0.32510000E+02     -0.45111131E+01
      0.19690000E+02      0.32510000E+02     -0.49355308E+01
      0.25955000E+02      0.32510000E+02     -0.54217000E+01
      0.32220000E+02      0.23027500E+02     -0.39635200E+02
      0.32220000E+02      0.13545000E+02     -0.39641260E+02
      0.32220000E+02      0.40625000E+01     -0.39642728E+02
      0.22822500E+02     -0.54200000E+01     -0.39791600E+02
      0.13425000E+02     -0.54200000E+01     -0.39511252E+02
      0.40275000E+01     -0.54200000E+01     -0.39012487E+02
[...]
POINT_DATA      2013
CELL_DATA     12111
SCALARS Resistivity(ohm.m) double 1
LOOKUP_TABLE default
           144.61162           239.64077            35.73590           129.25902            93.00937           312.86905            85.76711           108.66700            92.83497            54.81484            83.45257           103.04310           134.92299            24.71934           100.55452           300.64375            76.73556           230.37664            79.33686           402.79660           128.61075            97.88210            26.97840           187.59443           110.05053            94.02492            97.04040            39.21263           673.90266           249.61844            68.43457            76.04832           268.98930           102.78649           119.57681           109.61453            80.19159            84.36560           176.14584            82.11978           106.23867            77.16237           119.71053           277.61431           262.95553           133.54309           205.38706            24.00979          1208.41638            84.87722            54.08268            48.18341           100.32923            89.41638           242.09753           107.85832            53.38049            66.70409            58.77740            61.79719           211.00120            64.72365            83.25866            66.53396            68.16797            53.78069            99.58842            67.09249           117.29901            75.43400            65.65509            44.86716           108.28984           134.94866           134.92186            42.15036            48.95104            87.78869           128.36847           102.93067           121.27611           243.14167            83.74670           148.81206            64.63488           337.46682           192.11523           109.81584            54.20261           265.60905            65.06499           401.55841            98.71100            53.76224           293.54019            69.97255            62.85140            91.24421           206.62637           184.83276           102.01018            18.61008            87.97014            56.76286            86.20086           166.14941            38.65889           108.83562            58.62284            94.17584           186.39009           323.18061           114.90797           135.84194          1600.58393            89.22232           112.40394            41.99645           183.02408            87.66900           109.25685            84.83906           175.60014           169.13907            93.30524           108.98680          1820.34994           656.12969            87.28641            71.04574            49.75621            44.83098            42.13441            43.61417           434.76381           105.03232           106.23623            58.36345           108.59437           110.41654            57.77986            37.21332            60.87292            46.69118            68.98246            78.85754           261.74441           278.47470            60.78774           182.15586            26.57740            88.03990            77.91865            39.13795            77.23966            52.69324            73.32000            84.60423           221.10239            97.33854            94.77290            28.98150           100.10155           123.95076            22.82776            65.51104            60.55046            80.09922           114.86798            27.18233            78.35970            88.43750            73.17846            69.02565            20.73052            47.47133            60.61206           200.67506           180.45710            33.00684            81.66139            24.51102            72.00296            67.95667            30.15950            48.25726           147.57115            24.30858            59.77265            57.15960           208.83807           223.49780            28.81456            72.59130            25.83991            45.97603           258.53579            55.68200           124.30376            95.56833            77.33372            72.89090           157.92160            65.48017            53.68817            89.46569            37.41044           129.03276            78.30336            69.22699           310.30621            70.42442            42.34905           409.86749            80.31143            74.91354            99.24328           134.81374           677.98388            81.16037            32.05273            26.04500            87.45823           181.01189            69.14165           121.02997            87.13039            83.13609           235.45457            49.04559            32.47593           319.18602           110.53697           141.40965           110.89542            71.26539            52.76509            55.35400           281.10791           201.68271           138.45703            91.49449            94.84570            83.72938           390.49564           513.19439           158.94669           111.76830           142.59776            90.92022            51.89103           256.69963            77.46451           132.09036            62.52832            68.92989           109.27451           129.21604            61.81309            78.42332            41.97032            52.51599            80.41782            95.50413            89.95076           345.16790            53.35289            42.27619            57.58898            74.02593            37.40304            78.82056           222.23864            48.53478           100.91503           232.17358            83.24156           299.87768            85.41880            76.38252            57.68114            42.81129           387.20605            90.57116           113.47281            49.28620            82.41934           169.37709            38.88333            56.43581           103.30371            87.57677            67.19409            45.65034            59.33258            76.76264            70.86129            90.54637           100.68823           236.29483            69.68735            75.53509            94.64479            82.13337            61.11268           116.98617            25.61557            89.38168           178.15900           300.19755            85.36874            46.51569            55.04409            51.22890            76.40719            24.63893            64.03062            42.08053           313.62411           122.10764           119.40563            67.80405           124.54306           225.88738            88.10432            56.96450            77.16521            59.72579           568.53739            33.66418            25.10183            92.42144            76.13479            75.92652            65.37246            57.16185           201.64551          1125.22951           128.25348           153.21314            44.08687            97.42437           176.23223            31.72397           142.27165            57.99612           106.16061            70.16024           103.72462            65.35602           238.08590            89.28062           465.43411           110.90908           171.17050           235.58414            46.85977            80.33893            55.25278           164.74377           131.86900           110.79896            40.01651           425.08269            89.57619           228.12316            49.38614            40.31053           129.26999            64.03836            60.29996           101.61781            48.97741            61.95842           281.19567            26.85257           124.85817            50.75330           222.58239            29.46823            74.71796           103.43134            41.20175            76.40115           124.02941            87.30451            47.66781            82.55898           102.82613           129.29642           138.20408           108.76977           250.81897            42.79497            54.22393           266.54520           107.46178           150.52207           227.55132           113.79722           562.92128            77.32163            86.62059           145.57961           197.01248            71.89523            94.86592           118.47282           134.92710           280.95749            72.70235            76.75798            95.68911            44.06357            90.26327           265.95831           248.53950            71.31006           196.11717           493.25150            28.54626            72.79263           181.37444           139.83514            86.89594           873.03335            39.61416            98.76108           105.07502            71.75777            79.40496            68.40022            25.04205            63.80405            45.22671            60.56454            28.32516            45.30119            50.87299            21.65232           219.48199            91.32628            46.95837            54.15097            69.05128           491.19725           108.99105           112.12057            69.81029            97.09836           104.05985           113.55397           149.29263            21.71017            78.75055            85.60471           160.24724            27.73836            57.76241            43.01187            25.30163           251.85809            43.25692            66.42153            67.64181           137.71758            77.02066            89.21819            56.90576            68.29257            61.94048           108.39683           136.55840           393.93303            52.23558           138.02992            33.35224           295.52092            77.35093            27.70379            44.40564           102.54163            25.39531            48.06257           106.26396            72.75582            63.17783            41.75466           102.05003           203.33390            86.54939            21.32876           235.05123            71.82867            27.12389            64.45113            55.03579            44.57749           295.11724           324.99901            40.92186            26.71978            81.87026            78.90293            57.36759           132.90064            27.22048            71.18026            31.63468            36.02508           309.10159            41.19038            72.38049            40.42443            63.37733           133.79309            23.63634            81.15947            52.26214           120.76652            46.04315           141.92300            21.61038            76.43772            44.89276           112.47208            61.43772            91.16118            99.06029            33.94759            71.63631            54.42746           143.30828            68.94719           152.97991            48.14131            86.01326           112.04233            44.59305            99.53945            97.20591            37.88430            41.20032           382.26686            86.71254           403.51521            69.54844           182.40448            90.30014           185.10495            86.30326           103.56968           151.39474            92.14316            58.57711            64.27940            60.91175            89.84194            92.98563           394.21418           290.55999            99.14541            82.43823            84.15396            55.08016           103.69351            83.80696            91.14043           186.18675           245.89789            74.66285            37.84941            64.86140            84.30834          2480.22058            68.54748            49.58964           118.33000            61.82270            45.15846            68.73824           162.46132           348.99429            59.15003           106.65403            57.18683           218.93324           110.43195            39.69889            39.46201            91.53968            84.66526            47.06917           102.37154           150.48837            80.41639            65.24631            50.22462            72.95344           103.08538           122.13545            61.74886            31.93490            76.83005            55.59120            80.33350            88.58637            68.53204           154.37584           136.91406           123.00621            69.81312            36.25246            71.72328            60.70972            42.08744           132.14188            43.63900            31.30784            70.50340           172.95549            35.89256            74.62804            45.00866            57.12623           153.52186            78.06130            82.17695           434.51846            59.11687            63.61702            86.83236            84.75302            90.07214           226.33092            76.38534            52.56941            24.97959            43.75066           135.27622            46.91279            84.10329            43.87035            69.85349           331.19458            38.49869            46.94132            38.63118           111.99350            92.75056           143.14028            29.93867            65.19277            31.56989            80.40223            73.43008            79.48801            73.54948           110.56109            75.18938            68.06173            31.93504            44.80069            80.38963           251.17466          3195.04999           221.70902            81.07534           182.58729            41.83545           210.15214            46.82821            27.30467            73.38965            65.58478           187.95828            28.00672           125.66047            56.66797            93.41061            85.33736            43.19430           866.51780            63.60792            77.76150            18.74201            59.33574            56.30377            37.68847            47.58892           419.38209            55.47652            14.10601            23.17072            46.93845           106.77519            33.23386            86.21903           103.90173            89.20044            66.98757            60.03950            80.23858            40.72949            51.42115            44.83200           435.84589            58.79012            78.08803            98.03565            98.70337            87.51033           164.61479            42.28907           432.83516           280.35706           202.74970            35.68847           175.47449           142.68181            72.46381            54.41431            50.70221           102.47691           201.66057            73.41599           230.76129           105.65420            73.84459            75.81589            45.09814            63.63847            93.11698            78.92826            94.53389            25.02851           127.06390           184.88822           167.36377            93.70194           457.32284            93.25205           108.76640           200.87299           208.45656           108.50531            41.12225            62.42832            87.50452            40.36196            60.58879            53.88491           103.79101            45.66746           159.44262            52.71938            47.74167           279.14852            67.81346            56.03398           148.62480            69.66210            87.12665           108.32482            90.46373            26.68686           112.09616           201.05245            87.25021            35.92009            94.50285            40.88555            43.31652            27.22530            52.42283            21.63220            21.57719            53.16286            35.17059           212.63306            68.59222            15.61135           137.13110            52.00939            72.98437           157.32482           100.45558            21.19964            68.79054            27.95938            87.25063            75.47401            46.21988            96.74657            25.19007            70.71564            50.70248            79.23323            35.58783           183.04156           166.66984            95.11874            63.15127           397.92986            79.44238            78.87096           278.55927            87.52557           258.18665            85.75238            45.96674            95.06278            64.52548           148.60076           172.10906            43.28099           124.87792           179.25472            89.09775            24.17029           155.48075           897.19508            65.95905           165.54332            58.36797           130.45154            77.49711            98.10342           552.34458            67.85131            53.06005            40.80388           118.18153            94.83667            27.76303            92.88187            54.64266            71.44079            53.75737           100.08880           143.67763           247.35081            53.69884            32.90078            74.16983            53.28863           172.60729            51.66737           100.32202            65.68541            69.00741            48.26663           134.28342           447.12152           117.23973            97.82256           211.45744            34.79109            53.76117            72.52682            28.40946           232.21264            85.68170            46.86552           124.96904            70.14633            44.56366           132.72000            86.66602            22.54576            99.45724            36.67164            99.33856           150.40087           201.28297           254.23684            90.30129            46.38253            56.21012            37.15258            63.46926            73.99579           206.57454            50.57604           332.17779            52.70705            52.35130            49.44014            69.39425            89.07311            38.90169            36.29394            76.43961           108.77317            89.26631            79.03998           193.37703           256.15434            93.15711           260.02734            59.81421            26.57893           237.78256           131.44795           195.50154            48.20959           202.58819            50.76865            88.96341           215.31304            88.54502            42.77559            96.32888            78.56047           289.54076            46.35159           100.60511            55.97652            28.50075            49.51900           105.27574            83.51737            72.81325           431.15373            41.71427            22.03360            88.05656            68.39733            80.74974           105.83225            54.90387            41.45363            89.06776            30.44144           170.20469            44.11994            85.30853           151.56426           118.55575            47.88068            42.55712            54.47765           170.74798           112.30949           101.18734           304.56534            37.46311            83.76362            29.63307            54.79244            69.55923            82.25955           282.91033           156.79605            66.92730            53.42183            57.14521            87.76576            70.51408            55.44587            34.51623            95.38523            72.11686            66.22917           183.66718            30.20762            77.94232            84.79137            35.12297           135.25139            76.44562           116.42617           100.63718            81.83264           117.81199           223.57593            58.40523            31.15881            97.36104            75.17652           190.76594           109.11808            81.48906            58.91197           724.35974            87.73396           111.66742            55.73334            49.95407           106.28208            87.53309           105.01308            56.41693            57.53594            47.10162  