# vtk DataFile Version 3.0
Output from R3t
ASCII
DATASET UNSTRUCTURED_GRID
POINTS       2013 double
      0.32220000E+02      0.32510000E+02     -0.59627149E+01
      0.32220000E+02     -0.54200000E+01     -0.62416000E+01
     -0.53700000E+01     -0.54200000E+01     -0.47973441E+01
     -0.53700000E+01      0.32510000E+02     -0.44240000E+01
      0.32220000E+02      0.32510000E+02     -0.39512715E+02
      0.32220000E+02     -0.54200000E+01     -0.39791600E+02
     -0.53700000E+01     -0.54200000E+01     -0.38347344E+02
     -0.53700000E+01      0.32510000E+02     -0.37974000E+02
      0.21571000E+03      0.21600000E+03     -0.60852000E+01
      0.21571000E+03     -0.18891000E+03     -0.62416000E+01
     -0.18886000E+03     -0.18891000E+03     -0.45045000E+01
     -0.18886000E+03      0.21600000E+03     -0.44240000E+01
      0.21571000E+03      0.21600000E+03     -0.22312520E+03
      0.21571000E+03     -0.18891000E+03     -0.22328160E+03
     -0.18886000E+03     -0.18891000E+03     -0.22154450E+03
     -0.18886000E+03      0.21600000E+03     -0.22146400E+03
      0.00000000E+00      0.98900000E+01     -0.27504500E+02
      0.00000000E+00      0.98900000E+01     -0.26504500E+02
      0.00000000E+00      0.98900000E+01     -0.25504500E+02
      0.00000000E+00      0.98900000E+01     -0.24504500E+02
      0.00000000E+00      0.98900000E+01     -0.23504500E+02
      0.00000000E+00      0.98900000E+01     -0.22504500E+02
      0.00000000E+00      0.98900000E+01     -0.21504500E+02
      0.00000000E+00      0.98900000E+01     -0.20504500E+02
      0.00000000E+00      0.98900000E+01     -0.19504500E+02
      0.00000000E+00      0.98900000E+01     -0.18504500E+02
      0.00000000E+00      0.98900000E+01     -0.17504500E+02
      0.00000000E+00      0.98900000E+01     -0.16504500E+02
      0.00000000E+00      0.98900000E+01     -0.15504500E+02
      0.00000000E+00      0.98900000E+01     -0.14504500E+02
      0.00000000E+00      0.98900000E+01     -0.13504500E+02
      0.00000000E+00      0.98900000E+01     -0.12504500E+02
      0.00000000E+00      0.98900000E+01     -0.11504500E+02
      0.00000000E+00      0.98900000E+01     -0.10504500E+02
      0.00000000E+00      0.98900000E+01     -0.95045000E+01
      0.00000000E+00      0.98900000E+01     -0.85045000E+01
      0.00000000E+00      0.98900000E+01     -0.75045000E+01
      0.00000000E+00      0.98900000E+01     -0.65045000E+01
      0.00000000E+00      0.98900000E+01     -0.55045000E+01
      0.00000000E+00      0.98900000E+01     -0.45045000E+01
      0.94700000E+01      0.27090000E+02     -0.44240000E+01
      0.94700000E+01      0.27090000E+02     -0.54240000E+01
      0.94700000E+01      0.27090000E+02     -0.64240000E+01
      0.94700000E+01      0.27090000E+02     -0.74240000E+01
      0.94700000E+01      0.27090000E+02     -0.84240000E+01
      0.94700000E+01      0.27090000E+02     -0.94240000E+01
      0.94700000E+01      0.27090000E+02     -0.10424000E+02
      0.94700000E+01      0.27090000E+02     -0.11424000E+02
      0.94700000E+01      0.27090000E+02     -0.12424000E+02
      0.94700000E+01      0.27090000E+02     -0.13424000E+02
      0.94700000E+01      0.27090000E+02     -0.14424000E+02
      0.94700000E+01      0.27090000E+02     -0.15424000E+02
      0.94700000E+01      0.27090000E+02     -0.16424000E+02
      0.94700000E+01      0.27090000E+02     -0.17424000E+02
      0.94700000E+01      0.27090000E+02     -0.18424000E+02
      0.94700000E+01      0.27090000E+02     -0.19424000E+02
      0.94700000E+01      0.27090000E+02     -0.20424000E+02
      0.94700000E+01      0.27090000E+02     -0.21424000E+02
      0.94700000E+01      0.27090000E+02     -0.22424000E+02
      0.94700000E+01      0.27090000E+02     -0.23424000E+02
      0.94700000E+01      0.27090000E+02     -0.24424000E+02
      0.94700000E+01      0.27090000E+02     -0.25424000E+02
      0.94700000E+01      0.27090000E+02     -0.26424000E+02
      0.94700000E+01      0.27090000E+02     -0.27424000E+02
      0.10980000E+02      0.14860000E+02     -0.20009430E+01
      0.10980000E+02      0.14860000E+02     -0.30009430E+01
      0.10980000E+02      0.14860000E+02     -0.40009430E+01
      0.10980000E+02      0.14860000E+02     -0.50009430E+01
      0.10980000E+02      0.14860000E+02     -0.60009430E+01
      0.10980000E+02      0.14860000E+02     -0.70009430E+01
      0.10980000E+02      0.14860000E+02     -0.80009430E+01
      0.10980000E+02      0.14860000E+02     -0.90009430E+01
      0.10980000E+02      0.14860000E+02     -0.10000943E+02
      0.10980000E+02      0.14860000E+02     -0.11000943E+02
      0.10980000E+02      0.14860000E+02     -0.12000943E+02
      0.10980000E+02      0.14860000E+02     -0.13000943E+02
      0.10980000E+02      0.14860000E+02     -0.14000943E+02
      0.10980000E+02      0.14860000E+02     -0.15000943E+02
      0.10980000E+02      0.14860000E+02     -0.16000943E+02
      0.10980000E+02      0.14860000E+02     -0.17000943E+02
      0.10980000E+02      0.14860000E+02     -0.18000943E+02
      0.10980000E+02      0.14860000E+02     -0.19000943E+02
      0.10980000E+02      0.14860000E+02     -0.20000943E+02
      0.10980000E+02      0.14860000E+02     -0.21000943E+02
      0.10980000E+02      0.14860000E+02     -0.22000943E+02
      0.10980000E+02      0.14860000E+02     -0.23000943E+02
      0.10980000E+02      0.14860000E+02     -0.24000943E+02
      0.10980000E+02      0.14860000E+02     -0.25000943E+02
      0.26850000E+02      0.17850000E+02     -0.60849799E+01
      0.26850000E+02      0.17850000E+02     -0.70849799E+01
      0.26850000E+02      0.17850000E+02     -0.80849799E+01
      0.26850000E+02      0.17850000E+02     -0.90849799E+01
      0.26850000E+02      0.17850000E+02     -0.10084980E+02
      0.26850000E+02      0.17850000E+02     -0.11084980E+02
      0.26850000E+02      0.17850000E+02     -0.12084980E+02
      0.26850000E+02      0.17850000E+02     -0.13084980E+02
      0.26850000E+02      0.17850000E+02     -0.14084980E+02
      0.26850000E+02      0.17850000E+02     -0.15084980E+02
      0.26850000E+02      0.17850000E+02     -0.16084980E+02
      0.26850000E+02      0.17850000E+02     -0.17084980E+02
      0.26850000E+02      0.17850000E+02     -0.18084980E+02
      0.26850000E+02      0.17850000E+02     -0.19084980E+02
      0.26850000E+02      0.17850000E+02     -0.20084980E+02
      0.26850000E+02      0.17850000E+02     -0.21084980E+02
      0.26850000E+02      0.17850000E+02     -0.22084980E+02
      0.26850000E+02      0.17850000E+02     -0.23084980E+02
      0.26850000E+02      0.17850000E+02     -0.24084980E+02
      0.26850000E+02      0.17850000E+02     -0.25084980E+02
      0.26850000E+02      0.17850000E+02     -0.26084980E+02
      0.26850000E+02      0.17850000E+02     -0.27084980E+02
      0.26850000E+02      0.17850000E+02     -0.28084980E+02
      0.26850000E+02      0.17850000E+02     -0.29084980E+02
      0.18640000E+02      0.00000000E+00     -0.62416000E+01
      0.18640000E+02      0.00000000E+00     -0.72416000E+01
      0.18640000E+02      0.00000000E+00     -0.82416000E+01
      0.18640000E+02      0.00000000E+00     -0.92416000E+01
      0.18640000E+02      0.00000000E+00     -0.10241600E+02
      0.18640000E+02      0.00000000E+00     -0.11241600E+02
      0.18640000E+02      0.00000000E+00     -0.12241600E+02
      0.18640000E+02      0.00000000E+00     -0.13241600E+02
      0.18640000E+02      0.00000000E+00     -0.14241600E+02
      0.18640000E+02      0.00000000E+00     -0.15241600E+02
      0.18640000E+02      0.00000000E+00     -0.16241600E+02
      0.18640000E+02      0.00000000E+00     -0.17241600E+02
      0.18640000E+02      0.00000000E+00     -0.18241600E+02
      0.18640000E+02      0.00000000E+00     -0.19241600E+02
      0.18640000E+02      0.00000000E+00     -0.20241600E+02
      0.18640000E+02      0.00000000E+00     -0.21241600E+02
      0.18640000E+02      0.00000000E+00     -0.22241600E+02
      0.18640000E+02      0.00000000E+00     -0.23241600E+02
      0.18640000E+02      0.00000000E+00     -0.24241600E+02
      0.18640000E+02      0.00000000E+00     -0.25241600E+02
      0.18640000E+02      0.00000000E+00     -0.26241600E+02
      0.18640000E+02      0.00000000E+00     -0.27241600E+02
      0.18640000E+02      0.00000000E+00     -0.28241600E+02
      0.18640000E+02      0.00000000E+00     -0.29241600E+02
      0.32220000E+02      0.26188333E+02     -0.60852000E+01
      0.32220000E+02      0.19866667E+02     -0.60852000E+01
      0.32220000E+02      0.13545000E+02     -0.60912602E+01
      0.32220000E+02      0.72233333E+01     -0.60927284E+01
      0.32220000E+02      0.90166667E+00     -0.61657004E+01
      0.25955000E+02     -0.54200000E+01     -0.62416000E+01
      0.19690000E+02     -0.54200000E+01     -0.62416000E+01
      0.13425000E+02     -0.54200000E+01     -0.59612523E+01
      0.71600000E+01     -0.54200000E+01     -0.54624868E+01
      0.89500000E+00     -0.54200000E+01     -0.49987621E+01
     -0.53700000E+01      0.90166667E+00     -0.45045000E+01
     -0.53700000E+01      0.72233333E+01     -0.45045000E+01
     -0.53700000E+01      0.13545000E+02     -0.45045000E+01
     -0.53700000E+01      0.19866667E+02     -0.44552769E+01
     -0.53700000E+01      0.26188333E+02     -0.43262934E+01
      0.89500000E+00      0.32510000E+02     -0.44240000E+01
      0.71600000E+01      0.32510000E+02     -0.44240000E+01
      0.13425000E+02      0.32510000E+02     -0.45111131E+01
      0.19690000E+02      0.32510000E+02     -0.49355308E+01
      0.25955000E+02      0.32510000E+02     -0.54217000E+01
      0.32220000E+02      0.23027500E+02     -0.39635200E+02
      0.32220000E+02      0.13545000E+02     -0.39641260E+02
      0.32220000E+02      0.40625000E+01     -0.39642728E+02
      0.22822500E+02     -0.54200000E+01     -0.39791600E+02
      0.13425000E+02     -0.54200000E+01     -0.39511252E+02
      0.40275000E+01     -0.54200000E+01     -0.39012487E+02
[...]
POINT_DATA      2013
CELL_DATA     12111
SCALARS Resistivity(ohm.m) double 1
LOOKUP_TABLE default
           100.96164           249.40419            53.52783            92.51447            93.77265           206.60081            79.58584            97.25972           118.10889            83.23913            79.26891            73.02478           124.00895            40.03629            95.74091           270.06860            96.16786           139.83789            84.56055           253.14361           102.36364            90.33398            41.63517           198.65480            98.70616            84.49376            85.05942            72.11100           372.89662           175.78225            77.56191            89.37195           233.99997            95.22842            85.51420           101.33249            81.02578            78.95278           165.36912            78.44917            97.43978            93.84179            87.51485           258.52286           190.17201           169.56239           133.31404            52.02910           615.26416            84.70489            53.55953            77.39120            95.30846            86.09120           289.94184           135.21192            64.66320            73.64654            81.83712            85.51529           154.75774            70.59112            95.49870            68.89984            59.64105            77.77351           118.62493            61.66979            87.00132            91.77787            87.24132            48.35257            97.01610           121.90104           112.61343            48.11441            43.32156            75.71450            98.20890            94.01840            92.93528           223.20185           108.78606           134.42942            73.06466           233.89406           134.79988           101.73536            73.85592           192.08098            43.57479           522.65992           130.43626            51.11386           278.49265            53.38773            88.69062            85.64528           221.08228           115.16723            89.79506            44.22754            85.47962            92.06437            81.18275           177.97003            43.03010           111.51714            77.78796            87.82975           186.46721           158.98668           119.53660           102.53380           675.93303            92.46738           135.80983            72.88950           100.97019            99.29327            82.38123            94.99010           127.22004           139.60226            94.01019           112.93820          1140.65570           502.99937            82.13734            83.40715            55.74555            76.50815            69.75020            72.96611           403.85413            83.08144            91.33582            76.68264            90.56175           100.26925            85.87066            48.85154            80.89588            81.17273            68.74211           108.31864           201.49713           135.34365            71.63165           139.31695            42.30846            98.14596            95.69877            54.72931            46.45858            73.98793            74.13429            83.60804           136.66684            93.53391            85.86500            54.21650            87.14680           118.66383            40.13008            79.37999            89.55142            88.15568           110.67965            43.59017            94.92235            81.03794            78.49913            80.91577            34.78234            54.70191            75.75168           152.84217           214.22631            63.82932            94.74765            36.88262            78.83751            79.59270            53.41090            41.03136            70.06925            43.03917            77.55480            59.54680           220.25983           145.77315            45.94465            55.52350            43.32468            46.73591           135.49492            70.02221            83.53499            90.97928            91.48973            72.46895           136.29860            81.08589            67.54595            89.32127            45.41414            98.67085            87.69631           117.18702           185.83660            83.34431            37.80318           245.39488            93.56317            80.47517           103.96239           132.92561           370.47024            86.02650            53.63249            48.80656            80.08092           132.07769            89.84594            91.07950            85.79418            79.60079           204.02699            59.91623            49.65561           224.96819           115.57517            90.43600            94.99697            82.22592            71.76326            78.23014           215.11583           132.73624           122.67801            86.52472           106.48791            60.28328           269.32091           355.66296           127.13840            74.12095           115.06636            82.67341            50.81625           173.06992            94.76065            98.48500            71.59634            80.49484           102.12057           125.29367            88.30114            98.81014            71.21084            78.32891            76.51876            85.28492            82.06810           239.64051            71.08310            46.56249            70.33691            74.61322            63.72588            57.33736           133.28285            45.09114            84.36581           164.38713            77.03400           148.71713            77.84731            94.02958            69.80025            53.68358           333.16183            88.43779            92.25796            88.31183            91.89395           162.85479            72.59768            80.79977            84.44350            81.53343            88.14385            64.82056            71.20433            76.19675            90.90459            88.34256            85.01247           176.82879            87.50932            75.43218           115.91553            87.92900            82.76097           109.76156            37.46213            89.90824           147.79446           269.44999            93.33715            51.03111            79.81031            64.65753            95.12584            45.57600            79.87811            46.24567           157.69638           171.20416           165.25598            76.72569            86.97742           202.13233            84.45862            44.64887            76.47797            97.07506           375.15478            64.97208            36.90069            88.35010            83.86316            54.20701            53.68154            81.36251           208.17980           581.09055            96.34528           137.34766            69.69302            93.47862           124.34922            57.28198           139.79606            91.68576            97.66893            79.16936           100.46531            87.33264           156.97404            77.63474           310.36386           112.69598           119.05421           242.46168            50.72438            81.03222            74.89232           158.61791           130.55585            92.42343            69.84805           272.59458            85.92338           164.32397            70.21137            67.88679           122.19183            72.44937            55.33850            96.00477            50.95045            70.50066           224.68408            41.81470           117.96357            73.77126           136.02248            57.02657            88.66341           156.62390            55.17680            95.49196           101.04311            91.25560            55.96990            77.47409            84.81882           199.94098           119.35121            89.26189           196.72626            73.32388            93.82185           161.85566           125.97049           145.15409           198.27765           251.42416           379.56186           115.12755            83.35007           143.17261           130.17052            83.72257            83.72045            92.48374           159.84916           167.17908            73.88596            85.46617           104.59566            80.75829            89.31748           144.98804           169.91927            77.88437           152.30627           308.50597            41.65148            76.72339           140.46633           120.82650            82.59510           488.75237            60.22738            85.93485            89.53542            96.22240            77.48912            72.04890            36.41526            80.54003            54.01999            69.99747            47.42572            65.00189            71.01508            35.94512           155.06114            80.81289            56.40657            75.53429            95.58798           332.66946           102.21860           101.99627            58.93918            89.96638           156.68917           102.44932            91.82682            36.59133            83.55532            83.26838           110.14871            51.16819            81.93735            55.44902            45.53815           270.13855            41.08168            70.55061            81.39660           114.51291            87.13828            97.77639            96.91241           113.26780            72.85676            98.08496           117.89519           285.20141            75.28912            98.48900            58.73714           162.08676            83.46763            43.72183            78.46811           101.23402            48.55438            60.68284            97.23709            77.16554            51.57794            54.09575            87.35662           124.85715           110.44008            38.50209           186.72773           109.49357            55.21378            55.85714            42.34834            64.32609           211.64393           359.03892            56.54856            49.02130            78.14403            88.40529            73.38258            75.42178            33.21436            84.07804            57.35105            60.96912           202.56276            64.18600            83.21468            54.31597            78.43046           101.90008            39.52709            82.42142            54.94654           113.68212            57.83209           114.42092            40.08183            77.62707            75.37060           129.21223            55.92549            79.65583            86.55291            56.79558            92.77015            80.81877           122.15069            87.01759           118.76627            77.85651            96.26631            93.99589            66.92303            94.73015           121.51325            54.34823            70.16468           282.65794            90.28927           281.65477            76.72568           141.14132            90.58153           201.46746            89.98806            96.02357           134.39221            92.81817            76.16503            74.23434            77.25611            80.01724            55.22193           328.61698           182.66032            93.99937            87.41929            81.14780            84.48818            91.70809            85.72304            85.31132           177.46425           177.21919            75.30317            58.10559            71.98516            91.49389           912.30772            84.49422            64.43090            93.65522            86.75354            56.68095            79.72735           106.83192           223.69341            84.65102           154.62804            91.14756           153.31650            88.66745            45.60814            47.18997            89.13951            64.99937            78.84613            86.46007           137.63058            73.81005            84.79486            62.70734            85.14714            81.20782            90.91003            82.57229            57.89095            57.57374            68.18870            86.55249            85.01965            93.66689           132.90906            99.58746           117.66962           100.69565            67.03465            83.79862            86.42570            62.42771           148.08032            56.63086            51.67624            81.00199           161.99985            66.17794            90.18115            52.09487            86.35157           106.61492            80.24101            92.20180           307.61921            71.78881            78.07221            91.51026            92.63880            88.73630           148.77569           101.03871            86.51120            37.07870            75.51487           139.01287            74.85388            80.57527            78.72185            78.03059           168.15578            66.69487            52.39628            66.69957            90.83521            90.61095           134.36646            52.11405           104.54476            59.15185            82.62467            80.16312            80.55108            85.43995            92.11535            78.23808            74.78317            57.88443            69.66011            95.76261           313.97056          1185.19716           184.40097            75.49500           112.87715            77.11891           145.43166            69.95824            43.99245            76.27420            63.41053           167.16528            46.28921           102.63672            76.88676            90.54738            81.11628            69.84620           486.05012            76.79829            99.40929            41.68220            60.31794            75.53647            60.92856            64.24123           295.84492            77.95451            33.51825            43.71170            61.51136            90.24418            56.76336            97.95689           121.64518            87.47249            38.84255            78.87236            85.63388            51.66601            59.79769            62.38772           269.71231            59.09845            81.61892            84.18433            84.20586            78.83112           100.41315            74.10764           451.26556           233.50548           139.76898            55.81985           106.39952           118.55252           111.24084            66.86299            71.46026            92.13471           193.54040            75.38675           157.07830            89.00997            74.75879            78.33518            52.38794            81.21284            83.63878            74.23020           129.32794            34.44356           143.42109            79.73775           219.38827           106.99876           413.20371            80.02957            97.10574           123.59310           187.82876           117.12694            42.68121            91.55147           109.79386            63.69464            67.79025            76.14538           122.08884            54.11496           133.59255            58.76631            67.84459           262.60124           110.20952            75.14270           232.59999           113.52379           102.40457           105.51865           127.17436            42.99307            87.11649           200.71316            93.88184            62.52712            91.19374            47.82820            52.77993            42.46470            48.08835            39.16324            37.23642            81.74005            43.26389           183.11414            79.70109            40.92896           121.74646            68.02001           116.03595           162.86048            89.07831            37.77760            91.02735            52.43043            86.47160            93.74701            59.76035            93.41343            36.30257            75.19478            52.74901            95.64655            53.36998           191.57230           119.48751            78.05818            83.92180           256.81928            99.22529            88.06376           209.01361            91.41085           187.50836            98.95227            72.02633           123.49156            75.07196           126.38375           160.82032            51.37189            96.13824           105.35814           107.45658            43.96061           143.55210           481.53880           103.30924           135.39192            89.69320            76.53917            86.41546            96.16247           567.84394            69.47650            83.22321            42.23871           143.83338           114.48078            44.95733            95.25039            74.07368            85.79544            79.87633           123.55838           128.83031           181.16167            80.69456            57.63762            79.42781            73.22644           156.86216            72.13415           106.38663            79.52820            63.80837            54.53107           118.20919           225.25755           105.17016            89.25055           196.60999            55.15295            72.32582            85.32299            53.58765           164.35565            77.67536            57.93768           143.90172            70.27992            78.65603           150.98832            82.66056            35.83075            86.22459            67.09332            93.78503           128.73001           244.49209           160.72423            97.81360            58.04257            59.99642            63.38846            83.56006            72.61554           158.74626            87.08209           264.92582            68.67344            59.31086            51.25543            77.83426            88.77574            63.25502            52.47028            83.14653            93.22962            76.85823            93.49949           154.70956           270.94628            72.01452           266.06755            60.94819            51.11374           200.36603           111.12219           196.80011            65.99854           158.46073            80.70529            81.74081           196.46927           101.84233            72.63392            79.35769            73.95143           154.91712            71.27193            83.17961            79.63669            49.00126            75.91438            95.58986            79.84058            87.39455           249.44626            50.62739            41.35100           112.21510            73.63916            74.80498           122.94789            93.48368            49.18312            85.46145            57.79912           137.87009            68.34543            78.02602           152.41425           101.06534            59.52441            53.52661            86.58092           162.75317            97.61967           106.23076           178.55960            62.99480            95.17985            55.30584            90.95031            79.72638           103.69063           170.75178           149.95146            88.55048            77.16675            77.27575           102.63760            67.23353            62.18526            52.58863           106.27246            71.17461            89.14305           127.15489            45.40540            96.64462            98.62590            57.01566           103.82654           113.35958            72.30355            88.19220            78.95727            65.04741           155.85422            75.78726            53.21947            78.75144            94.18123           209.34182           129.99686            96.28788            84.75814           602.51217            91.97373           116.97235            76.20910            54.98334            89.87079            96.84609            96.49214            74.68860            87.53331            58.43451  