# vtk DataFile Version 3.0
Output from R3t
ASCII
DATASET UNSTRUCTURED_GRID
POINTS       2013 double
      0.32220000E+02      0.32510000E+02     -0.59627149E+01
      0.32220000E+02     -0.54200000E+01     -0.62416000E+01
     -0.53700000E+01     -0.54200000E+01     -0.47973441E+01
     -0.53700000E+01      0.32510000E+02     -0.44240000E+01
      0.32220000E+02      0.32510000E+02     -0.39512715E+02
      0.32220000E+02     -0.54200000E+01     -0.39791600E+02
     -0.53700000E+01     -0.54200000E+01     -0.38347344E+02
     -0.53700000E+01      0.32510000E+02     -0.37974000E+02
      0.21571000E+03      0.21600000E+03     -0.60852000E+01
      0.21571000E+03     -0.18891000E+03     -0.62416000E+01
     -0.18886000E+03     -0.18891000E+03     -0.45045000E+01
     -0.18886000E+03      0.21600000E+03     -0.44240000E+01
      0.21571000E+03      0.21600000E+03     -0.22312520E+03
      0.21571000E+03     -0.18891000E+03     -0.22328160E+03
     -0.18886000E+03     -0.18891000E+03     -0.22154450E+03
     -0.18886000E+03      0.21600000E+03     -0.22146400E+03
      0.00000000E+00      0.98900000E+01     -0.27504500E+02
      0.00000000E+00      0.98900000E+01     -0.26504500E+02
      0.00000000E+00      0.98900000E+01     -0.25504500E+02
      0.00000000E+00      0.98900000E+01     -0.24504500E+02
      0.00000000E+00      0.98900000E+01     -0.23504500E+02
      0.00000000E+00      0.98900000E+01     -0.22504500E+02
      0.00000000E+00      0.98900000E+01     -0.21504500E+02
      0.00000000E+00      0.98900000E+01     -0.20504500E+02
      0.00000000E+00      0.98900000E+01     -0.19504500E+02
      0.00000000E+00      0.98900000E+01     -0.18504500E+02
      0.00000000E+00      0.98900000E+01     -0.17504500E+02
      0.00000000E+00      0.98900000E+01     -0.16504500E+02
      0.00000000E+00      0.98900000E+01     -0.15504500E+02
      0.00000000E+00      0.98900000E+01     -0.14504500E+02
      0.00000000E+00      0.98900000E+01     -0.13504500E+02
      0.00000000E+00      0.98900000E+01     -0.12504500E+02
      0.00000000E+00      0.98900000E+01     -0.11504500E+02
      0.00000000E+00      0.98900000E+01     -0.10504500E+02
      0.00000000E+00      0.98900000E+01     -0.95045000E+01
      0.00000000E+00      0.98900000E+01     -0.85045000E+01
      0.00000000E+00      0.98900000E+01     -0.75045000E+01
      0.00000000E+00      0.98900000E+01     -0.65045000E+01
      0.00000000E+00      0.98900000E+01     -0.55045000E+01
      0.00000000E+00      0.98900000E+01     -0.45045000E+01
      0.94700000E+01      0.27090000E+02     -0.44240000E+01
      0.94700000E+01      0.27090000E+02     -0.54240000E+01
      0.94700000E+01      0.27090000E+02     -0.64240000E+01
      0.94700000E+01      0.27090000E+02     -0.74240000E+01
      0.94700000E+01      0.27090000E+02     -0.84240000E+01
      0.94700000E+01      0.27090000E+02     -0.94240000E+01
      0.94700000E+01      0.27090000E+02     -0.10424000E+02
      0.94700000E+01      0.27090000E+02     -0.11424000E+02
      0.94700000E+01      0.27090000E+02     -0.12424000E+02
      0.94700000E+01      0.27090000E+02     -0.13424000E+02
      0.94700000E+01      0.27090000E+02     -0.14424000E+02
      0.94700000E+01      0.27090000E+02     -0.15424000E+02
      0.94700000E+01      0.27090000E+02     -0.16424000E+02
      0.94700000E+01      0.27090000E+02     -0.17424000E+02
      0.94700000E+01      0.27090000E+02     -0.18424000E+02
      0.94700000E+01      0.27090000E+02     -0.19424000E+02
      0.94700000E+01      0.27090000E+02     -0.20424000E+02
      0.94700000E+01      0.27090000E+02     -0.21424000E+02
      0.94700000E+01      0.27090000E+02     -0.22424000E+02
      0.94700000E+01      0.27090000E+02     -0.23424000E+02
      0.94700000E+01      0.27090000E+02     -0.24424000E+02
      0.94700000E+01      0.27090000E+02     -0.25424000E+02
      0.94700000E+01      0.27090000E+02     -0.26424000E+02
      0.94700000E+01      0.27090000E+02     -0.27424000E+02
      0.10980000E+02      0.14860000E+02     -0.20009430E+01
      0.10980000E+02      0.14860000E+02     -0.30009430E+01
      0.10980000E+02      0.14860000E+02     -0.40009430E+01
      0.10980000E+02      0.14860000E+02     -0.50009430E+01
      0.10980000E+02      0.14860000E+02     -0.60009430E+01
      0.10980000E+02      0.14860000E+02     -0.70009430E+01
      0.10980000E+02      0.14860000E+02     -0.80009430E+01
      0.10980000E+02      0.14860000E+02     -0.90009430E+01
      0.10980000E+02      0.14860000E+02     -0.10000943E+02
      0.10980000E+02      0.14860000E+02     -0.11000943E+02
      0.10980000E+02      0.14860000E+02     -0.12000943E+02
      0.10980000E+02      0.14860000E+02     -0.13000943E+02
      0.10980000E+02      0.14860000E+02     -0.14000943E+02
      0.10980000E+02      0.14860000E+02     -0.15000943E+02
      0.10980000E+02      0.14860000E+02     -0.16000943E+02
      0.10980000E+02      0.14860000E+02     -0.17000943E+02
      0.10980000E+02      0.14860000E+02     -0.18000943E+02
      0.10980000E+02      0.14860000E+02     -0.19000943E+02
      0.10980000E+02      0.14860000E+02     -0.20000943E+02
      0.10980000E+02      0.14860000E+02     -0.21000943E+02
      0.10980000E+02      0.14860000E+02     -0.22000943E+02
      0.10980000E+02      0.14860000E+02     -0.23000943E+02
      0.10980000E+02      0.14860000E+02     -0.24000943E+02
      0.10980000E+02      0.14860000E+02     -0.25000943E+02
      0.26850000E+02      0.17850000E+02     -0.60849799E+01
      0.26850000E+02      0.17850000E+02     -0.70849799E+01
      0.26850000E+02      0.17850000E+02     -0.80849799E+01
      0.26850000E+02      0.17850000E+02     -0.90849799E+01
      0.26850000E+02      0.17850000E+02     -0.10084980E+02
      0.26850000E+02      0.17850000E+02     -0.11084980E+02
      0.26850000E+02      0.17850000E+02     -0.12084980E+02
      0.26850000E+02      0.17850000E+02     -0.13084980E+02
      0.26850000E+02      0.17850000E+02     -0.14084980E+02
      0.26850000E+02      0.17850000E+02     -0.15084980E+02
      0.26850000E+02      0.17850000E+02     -0.16084980E+02
      0.26850000E+02      0.17850000E+02     -0.17084980E+02
      0.26850000E+02      0.17850000E+02     -0.18084980E+02
      0.26850000E+02      0.17850000E+02     -0.19084980E+02
      0.26850000E+02      0.17850000E+02     -0.20084980E+02
      0.26850000E+02      0.17850000E+02     -0.21084980E+02
      0.26850000E+02      0.17850000E+02     -0.22084980E+02
      0.26850000E+02      0.17850000E+02     -0.23084980E+02
      0.26850000E+02      0.17850000E+02     -0.24084980E+02
      0.26850000E+02      0.17850000E+02     -0.25084980E+02
      0.26850000E+02      0.17850000E+02     -0.26084980E+02
      0.26850000E+02      0.17850000E+02     -0.27084980E+02
      0.26850000E+02      0.17850000E+02     -0.28084980E+02
      0.26850000E+02      0.17850000E+02     -0.29084980E+02
      0.18640000E+02      0.00000000E+00     -0.62416000E+01
      0.18640000E+02      0.00000000E+00     -0.72416000E+01
      0.18640000E+02      0.00000000E+00     -0.82416000E+01
      0.18640000E+02      0.00000000E+00     -0.92416000E+01
      0.18640000E+02      0.00000000E+00     -0.10241600E+02
      0.18640000E+02      0.00000000E+00     -0.11241600E+02
      0.18640000E+02      0.00000000E+00     -0.12241600E+02
      0.18640000E+02      0.00000000E+00     -0.13241600E+02
      0.18640000E+02      0.00000000E+00     -0.14241600E+02
      0.18640000E+02      0.00000000E+00     -0.15241600E+02
      0.18640000E+02      0.00000000E+00     -0.16241600E+02
      0.18640000E+02      0.00000000E+00     -0.17241600E+02
      0.18640000E+02      0.00000000E+00     -0.18241600E+02
      0.18640000E+02      0.00000000E+00     -0.19241600E+02
      0.18640000E+02      0.00000000E+00     -0.20241600E+02
      0.18640000E+02      0.00000000E+00     -0.21241600E+02
      0.18640000E+02      0.00000000E+00     -0.22241600E+02
      0.18640000E+02      0.00000000E+00     -0.23241600E+02
      0.18640000E+02      0.00000000E+00     -0.24241600E+02
      0.18640000E+02      0.00000000E+00     -0.25241600E+02
      0.18640000E+02      0.00000000E+00     -0.26241600E+02
      0.18640000E+02      0.00000000E+00     -0.27241600E+02
      0.18640000E+02      0.00000000E+00     -0.28241600E+02
      0.18640000E+02      0.00000000E+00     -0.29241600E+02
      0.32220000E+02      0.26188333E+02     -0.60852000E+01
      0.32220000E+02      0.19866667E+02     -0.60852000E+01
      0.32220000E+02      0.13545000E+02     -0.60912602E+01
      0.32220000E+02      0.72233333E+01     -0.60927284E+01
      0.32220000E+02      0.90166667E+00     -0.61657004E+01
      0.25955000E+02     -0.54200000E+01     -0.62416000E+01
      0.19690000E+02     -0.54200000E+01     -0.62416000E+01
      0.13425000E+02     -0.54200000E+01     -0.59612523E+01
      0.71600000E+01     -0.54200000E+01     -0.54624868E+01
      0.89500000E+00     -0.54200000E+01     -0.49987621E+01
     -0.53700000E+01      0.90166667E+00     -0.45045000E+01
     -0.53700000E+01      0.72233333E+01     -0.45045000E+01
     -0.53700000E+01      0.13545000E+02     -0.45045000E+01
     -0.53700000E+01      0.19866667E+02     -0.44552769E+01
     -0.53700000E+01      0.26188333E+02     -0.43262934E+01
      0.89500000E+00      0.32510000E+02     -0.44240000E+01
      0.71600000E+01      0.32510000E+02     -0.44240000E+01
      0.13425000E+02      0.32510000E+02     -0.45111131E+01
      0.19690000E+02      0.32510000E+02     -0.49355308E+01
      0.25955000E+02      0.32510000E+02     -0.54217000E+01
      0.32220000E+02      0.23027500E+02     -0.39635200E+02
      0.32220000E+02      0.13545000E+02     -0.39641260E+02
      0.32220000E+02      0.40625000E+01     -0.39642728E+02
      0.22822500E+02     -0.54200000E+01     -0.39791600E+02
      0.13425000E+02     -0.54200000E+01     -0.39511252E+02
      0.40275000E+01     -0.54200000E+01     -0.39012487E+02
[...]
POINT_DATA      2013
CELL_DATA     12111
SCALARS Resistivity(ohm.m) double 1
LOOKUP_TABLE default
            98.17800           218.39532            88.72063            87.08193           125.31153           155.55736            98.09793           121.22242           110.20868           117.22677            97.47103            73.74331           131.28354            71.34861           119.68018           175.00445           122.33250           119.38976           122.59301           135.47377           113.39077           104.13601            72.43704           134.04582           115.97301           106.04036           107.52980           109.17268           206.06465           127.04350           146.62290           123.82007           135.04744           107.89971            89.24992           118.52044           103.92436           116.04600           140.57879            95.28357           122.10161            99.73818            72.41993           193.63638           100.73024           185.38261           118.00068            85.84846           191.32722           114.57156            78.19518           112.37434           121.70001            89.21540           255.84902           152.20579           106.10282           107.34379           112.20659            95.17688           145.74484           103.34442           100.11568           122.17864            78.61979           110.70731           145.28180            81.14664           115.10931           123.58936           121.12569            58.61024           107.51570           122.05993           138.22277            87.44430            66.36734           119.09183           109.44789           119.63163            74.32688           205.30779           129.23032           125.52650           104.52334           178.04515           127.23358           122.77445           101.05699           135.43937            56.06595           441.81999           137.67218            73.44075           229.74133            49.36910           118.44035            99.94346           209.24361            99.05610            88.08846            82.55373           136.60407           122.98049            97.93370           191.29340            71.70252           145.90735           116.46471           104.89287           142.12158           119.35156           129.70246           112.75543           225.22475           120.19925           119.44065           110.90237            71.11373            91.73064           117.02685           127.59380           142.71992           126.67731           109.06488           149.66048           443.60053           292.09261           118.65682           106.54310            77.00961           113.16579           108.92241           111.51847           639.83998            55.92028           100.17940           113.29074            98.94883           122.87753           118.36144            69.16570           108.31983           114.61513           101.49190           132.62820           182.24060            98.19145           110.93868           141.02823            81.17739           114.03931           106.54569            77.12864            60.26633           102.58381            96.13934           107.65319           117.72871           118.78209            99.79415            96.67938           109.77514           121.55482            79.26536           108.66940           120.30121           119.06630           115.71063            71.59763           119.68017           106.90767           103.01785           106.05365            70.77629            78.92544           121.63755           160.13309           233.08075           100.84036           126.66281            72.73242           112.78910           107.36635            85.05329            53.70480            50.43865            76.70505           114.72621            87.64478           180.36896           145.26135            74.77852            40.71861            76.02265            72.34192           110.91874            95.69082            66.29879           113.72148           114.20850           117.60148           158.93316           114.11060            98.76531           118.89824            76.68585           111.64599           103.83957           151.50817           156.50350           114.04157            57.51197           218.36828           120.43406           109.79560           123.45943           136.86274           228.19414           113.30490            81.84270            91.07773            99.21863            87.73289           124.15341            56.52304           106.02313            94.61440           162.69974           103.00539            86.04364           170.84129           123.53925            77.05537           115.49922            93.34671           105.23050            92.39703           197.66207           112.87723           148.58816           104.99367           123.23504            62.18780           190.25853           236.37779           145.12544            74.92889           109.10063            96.62185            62.51406           152.34622           126.89237            94.79055            92.91477           118.60074           133.45971           135.58340           120.47986           116.55243           102.39369           150.66665           117.29061            98.13093           123.87464           183.63576            98.99701            69.16090            99.56685            93.84173            89.89105            62.74340           128.19177            47.87465           105.77090           131.44247            94.25907            80.56644           100.88531           104.35602           101.56701            67.24602           235.07043           122.54377           122.05804           118.46971           113.40954           147.64520           104.41422           111.87080            93.23328           120.36732           114.75757           103.58972            94.79132            95.92185            84.13266           111.38839           105.27496           162.43036           112.11036            94.24792           130.22770           107.36458           119.57581           140.86038            70.28451            86.45539           158.74534           217.68733           110.44741            88.18992           110.30280            92.59941           109.53055            80.16535           115.26581            75.72997           123.60307           214.78047           189.94542           118.59140            88.69400           143.91132            91.15497            57.89312            93.98865           116.70885           142.36246           100.57355            70.49950           110.60090           108.12031            56.77651            69.47247           118.18922           445.57515           191.82058           101.00971           139.72497            79.27220            91.15890           112.40409            99.68051           138.21958           120.49006           118.69742           120.08087           123.41684           120.18872           172.23194           115.25841           138.35258           126.79141           129.92967           248.52718            77.44723           130.82520           114.48637           151.26715           123.59530           105.04969           107.99034           136.13003           107.81396           183.37309            54.67594            82.90326           135.66004           129.04399            53.50330           123.56578            76.82845            81.18663           129.84392            80.31065           145.78755           104.01677           128.77905            87.27569           117.59181           156.43543            83.39068           125.03250            96.04720           118.60182            94.51249            98.14273           106.72072           172.98097           142.22363           108.78822           135.58286           110.22362           113.11650           100.10408           127.23893           139.26361           136.39055           304.57392           144.91961           131.63118            99.65313           166.89355           120.30019           126.43097           112.59174            96.91773           190.90796           101.72516           104.92111           128.32800           122.72976           115.82097           104.74768           119.59238           135.63633            98.46342           140.77112           157.62453            76.16504            93.54909           142.82752           130.95779           143.12068           286.14041            93.20556           128.05434           114.45355           125.32831            96.58543            94.08740            71.50323           118.38855            64.84147           107.46358            49.96668           100.13225           101.10972            68.97639           146.05339           121.31565            87.51779           114.98290           123.48377           255.17550           124.25773           110.20013            76.84170           105.74183           153.66658           143.03252           102.41805            71.27954           117.55468           108.14277           116.78046            93.63747            99.27163            71.18080            83.77762           239.17130            65.70038           116.04349           107.19862           110.76316           138.47368           120.75548           118.31959           126.04614            73.97874           123.45598           121.42976           137.83733            98.75871            43.61965            78.94133           100.82403           120.93028            76.42717           105.26631           122.51102            88.63805            90.18676           119.72278            97.07963            47.48518            94.15116            73.68943           120.34775           128.22784            71.88045           144.78699           119.74695            87.19651            74.10581            46.42531            99.63326           166.67081           263.40174            92.42980            84.79230            95.52846           115.35084            93.57398            52.77492            79.57129           111.60547            99.49864            83.15546           160.79691            95.90753           113.92604            75.37463           111.84321           113.05914            72.20606           109.41587            76.75010           139.37277            71.77049           110.64072            78.27406            96.87428           107.35824           138.64695            74.49753           119.08698           114.88618            91.57656           123.16307           114.53648            93.97101           114.43893           139.34055           112.29939           123.97407            93.11625           104.86857           120.64400           195.90897            70.17886           107.75324           141.21207           131.57538           231.50052           114.64925           103.20056           120.70119           193.09129           119.55855           116.47742           141.46735            94.21135           115.21156           116.06113           111.04176           105.34711            45.41166           153.61165           106.43375           112.56346           102.23200           102.52886           116.62619           104.18494           103.68419           118.01736           120.16124           152.29725            91.69478            98.14432           103.97027           129.13021           234.13284            85.84016            94.55870            98.72530           119.41572            88.88710           114.91531            76.58751           163.81842           111.80358           144.17366           111.43290           132.92113            96.35773            54.18850            77.91096           106.73590            53.59069           112.89314           115.25704           149.80464           102.82589           121.15346            91.25513           128.39829           119.11169            94.23570           119.11108            88.43440            44.80435            91.81236           129.68120           105.32621           116.10305           109.01347           106.67626           124.38086           126.78723           100.29566           109.60061           117.77493           101.49055           123.68950            86.34210            71.16540            99.76788           139.48355           105.55915           121.55910            64.83887           117.04865           111.25589           116.21077           123.78250           160.20422           111.10704           114.31240           131.26455           126.19357           117.36174           109.21041           132.80875           118.35881            70.79726           101.52311           131.23491           110.29367            96.98854           105.04278           103.22946           125.43484            90.12486            63.72829           107.22896            94.59979           119.89275           147.56185            94.66751           122.62734           100.00445            99.84160           116.80043            98.47525           127.82719           114.00505            93.65363           103.69291            94.86607           101.04876           107.34384           437.87681           225.78423           148.29975           105.98992            68.56446           113.62832           139.79538           107.22432            83.86367           108.43549            85.41326           138.37839            85.59916           110.99708           115.47718           117.55480            97.93238           100.26377           193.37337           113.87216           116.61188            80.06219            67.96209           104.04437            82.92274            95.11519           138.30950           116.60405            49.65330            83.52634            93.27061            99.37918            73.29736           120.96278           130.23577           110.41821            44.91598            99.90343           106.35593            84.27944            68.50112            95.55230           146.82348            62.85147            93.21727           105.81754           109.18352           118.48119            81.00357           104.54088           255.84010           198.53087           152.44601            95.83264            95.85773           116.07727           133.70240            73.99950           105.70300           120.22781           164.15119           105.65404           123.22441            97.22260            78.13337           106.24569            66.12999           105.42190            99.05960            79.62880           143.12599            66.61817           145.24450            68.40651           254.45712           120.46738           132.13894            84.61399            85.88868           115.62153           193.55070           150.29609            62.90325           124.51986           140.41644           103.95947           112.11034           109.31139           129.41283            76.39682           105.17573           108.81541           101.45419           223.97365           127.46977           114.80278           171.70781           127.04104           102.24385           121.83499           149.49201            79.73828           115.68636           134.19526           120.27759           104.10545           115.71455            87.02470            84.53422            80.78152            44.20220            76.74968            69.71509           114.53862            74.80045           145.90193           112.10377            52.48092           142.26676            95.56002           121.98421           134.87681           101.47498            73.05597           118.90601            86.63876           117.98653           114.75406            90.19667           118.10365            70.32234            98.29209            77.42039           107.41230            80.74277           135.06717           121.53048           118.67094           107.08473           153.88562           134.97716           113.74638           156.17975            92.58236           141.09982           149.72233           110.64055           137.81244           102.43443           137.11455           141.70354            76.27988           105.35702            84.95357           119.15599            83.98859           140.38799           189.39974           123.85918           159.27861            62.03688            47.85668           115.41310           123.40290           271.38738            92.14856           116.18709            64.48336           130.18413           128.59295            74.98004           135.35625           113.11240            99.87514           113.63130           136.96750           109.54543           176.83261           115.97159            91.09175           111.45163           107.93255           142.64514           110.88714           135.59696           114.75980            84.12786            80.58745           147.50949           150.85819            82.21059           119.33046           174.21749            73.22945            98.30570           114.97674            87.02527           148.65570           103.33342            83.00694           160.90088           122.31088           113.13388           121.50525           132.31696            71.59997            96.81674           104.91285           116.58112           129.48747           196.11579           152.55592           127.71121            82.95946           103.21250           105.10190           110.12823           127.29329           146.10592           118.26568           184.41561            96.02159            82.03255            69.05895           102.63805           108.75344           100.01340            91.98313           118.11885           123.22279           118.01500           126.76154           145.80101           237.57581            60.05833           225.13024            72.65324            85.43270           140.44897            63.04795           139.68389            97.25578           157.47449           113.82810            95.07009           160.33718           122.68745           108.09278           116.88429           118.44131           128.39615            97.58547           114.10877           117.31020            91.17301           114.31743           123.38840            99.07268           114.61576           206.19609            58.08314            79.21925           131.77780           113.84243           108.76906           138.86150           112.92679            79.17280           125.77397            98.15768           154.65185           107.44981           108.55294           134.88564           128.03805            99.73481            85.71925           118.96688           138.61778           111.57806           140.47745           156.18281            85.99892           128.63378            95.83110           117.13857           118.30098           126.24731           121.44809           139.28744           122.22492           108.73575           106.93702           117.99836            81.69448           104.68076            78.72704           131.97881           109.38887           122.37966           135.32506            68.25554           118.93370           132.50468            98.34445           120.29844           141.67672            59.88514           121.45717            97.01351            64.34211           118.65048           113.39989            95.80641            83.08891           125.06490           419.67307           140.23649           107.40651           119.37502           208.93286           114.34785            88.51506           105.16699            74.50844           107.20608           121.91460           120.00391           111.44905            83.15248            88.55990  